 Entering Gaussian System, Link 0=g16
 Initial command:
 /home/psl/g16/l1.exe "/home/psl/g16/scratch/Gau-73252.inp" -scrdir="/home/psl/g16/scratch/"
 Entering Link 1 = /home/psl/g16/l1.exe PID=     73254.
  
 Copyright (c) 1988-2019, Gaussian, Inc.  All Rights Reserved.
  
 This is part of the Gaussian(R) 16 program.  It is based on
 the Gaussian(R) 09 system (copyright 2009, Gaussian, Inc.),
 the Gaussian(R) 03 system (copyright 2003, Gaussian, Inc.),
 the Gaussian(R) 98 system (copyright 1998, Gaussian, Inc.),
 the Gaussian(R) 94 system (copyright 1995, Gaussian, Inc.),
 the Gaussian 92(TM) system (copyright 1992, Gaussian, Inc.),
 the Gaussian 90(TM) system (copyright 1990, Gaussian, Inc.),
 the Gaussian 88(TM) system (copyright 1988, Gaussian, Inc.),
 the Gaussian 86(TM) system (copyright 1986, Carnegie Mellon
 University), and the Gaussian 82(TM) system (copyright 1983,
 Carnegie Mellon University). Gaussian is a federally registered
 trademark of Gaussian, Inc.
  
 This software contains proprietary and confidential information,
 including trade secrets, belonging to Gaussian, Inc.
  
 This software is provided under written license and may be
 used, copied, transmitted, or stored only in accord with that
 written license.
  
 The following legend is applicable only to US Government
 contracts under FAR:
  
                    RESTRICTED RIGHTS LEGEND
  
 Use, reproduction and disclosure by the US Government is
 subject to restrictions as set forth in subparagraphs (a)
 and (c) of the Commercial Computer Software - Restricted
 Rights clause in FAR 52.227-19.
  
 Gaussian, Inc.
 340 Quinnipiac St., Bldg. 40, Wallingford CT 06492
  
  
 ---------------------------------------------------------------
 Warning -- This program may not be used in any manner that
 competes with the business of Gaussian, Inc. or will provide
 assistance to any competitor of Gaussian, Inc.  The licensee
 of this program is prohibited from giving any competitor of
 Gaussian, Inc. access to this program.  By using this program,
 the user acknowledges that Gaussian, Inc. is engaged in the
 business of creating and licensing software in the field of
 computational chemistry and represents and warrants to the
 licensee that it is not a competitor of Gaussian, Inc. and that
 it will not use this program in any manner prohibited above.
 ---------------------------------------------------------------
  

 Cite this work as:
 Gaussian 16, Revision C.01,
 M. J. Frisch, G. W. Trucks, H. B. Schlegel, G. E. Scuseria, 
 M. A. Robb, J. R. Cheeseman, G. Scalmani, V. Barone, 
 G. A. Petersson, H. Nakatsuji, X. Li, M. Caricato, A. V. Marenich, 
 J. Bloino, B. G. Janesko, R. Gomperts, B. Mennucci, H. P. Hratchian, 
 J. V. Ortiz, A. F. Izmaylov, J. L. Sonnenberg, D. Williams-Young, 
 F. Ding, F. Lipparini, F. Egidi, J. Goings, B. Peng, A. Petrone, 
 T. Henderson, D. Ranasinghe, V. G. Zakrzewski, J. Gao, N. Rega, 
 G. Zheng, W. Liang, M. Hada, M. Ehara, K. Toyota, R. Fukuda, 
 J. Hasegawa, M. Ishida, T. Nakajima, Y. Honda, O. Kitao, H. Nakai, 
 T. Vreven, K. Throssell, J. A. Montgomery, Jr., J. E. Peralta, 
 F. Ogliaro, M. J. Bearpark, J. J. Heyd, E. N. Brothers, K. N. Kudin, 
 V. N. Staroverov, T. A. Keith, R. Kobayashi, J. Normand, 
 K. Raghavachari, A. P. Rendell, J. C. Burant, S. S. Iyengar, 
 J. Tomasi, M. Cossi, J. M. Millam, M. Klene, C. Adamo, R. Cammi, 
 J. W. Ochterski, R. L. Martin, K. Morokuma, O. Farkas, 
 J. B. Foresman, and D. J. Fox, Gaussian, Inc., Wallingford CT, 2019.
 
 ******************************************
 Gaussian 16:  ES64L-G16RevC.01  3-Jul-2019
                22-Oct-2025 
 ******************************************
 %chk=DBFX_OPT_WB97XD_6-311++GDP_G_251022.chk
 --------------------------------------------
 # opt wb97xd/6-311++g(d,p) geom=connectivity
 --------------------------------------------
 1/18=20,19=15,26=3,38=1,57=2/1,3;
 2/9=110,12=2,17=6,18=5,40=1/2;
 3/5=4,6=6,7=1111,11=2,25=1,30=1,71=1,74=-58/1,2,3;
 4//1;
 5/5=2,38=5/2;
 6/7=2,8=2,9=2,10=2,28=1/1;
 7//1,2,3,16;
 1/18=20,19=15,26=3/3(2);
 2/9=110/2;
 99//99;
 2/9=110/2;
 3/5=4,6=6,7=1111,11=2,25=1,30=1,71=1,74=-58/1,2,3;
 4/5=5,16=3,69=1/1;
 5/5=2,38=5/2;
 7//1,2,3,16;
 1/18=20,19=15,26=3/3(-5);
 2/9=110/2;
 6/7=2,8=2,9=2,10=2,19=2,28=1/1;
 99/9=1/99;
 -----------------------------------
 DBFX_OPT_WB97XD_6-311++GDP_G_251022
 -----------------------------------
 Symbolic Z-matrix:
 Charge =  0 Multiplicity = 1
 C                    -0.45997   0.0642   -0.0889 
 C                     0.51209   1.23148   0.12105 
 C                     0.34391  -1.2226   -0.27043 
 C                     0.10847   2.33446   0.90729 
 C                     1.75681   1.20021  -0.46324 
 C                    -1.45157  -0.14922   1.06085 
 C                    -1.38404   0.28617  -1.29442 
 C                    -0.25104  -2.44872   0.10508 
 C                     1.61328  -1.18402  -0.78724 
 C                     0.95484   3.37613   1.02438 
 H                    -0.84643   2.3419    1.39426 
 C                     2.61275   2.3159   -0.33336 
 O                     2.20244   0.05685  -1.22095 
 C                    -2.71205  -0.39336   0.54377 
 C                    -1.19994  -0.1294    2.37743 
 C                    -2.66929  -0.10814  -0.97314 
 C                    -1.06004   0.78279  -2.49747 
 C                     0.45807  -3.57813  -0.05244 
 H                    -1.24507  -2.47667   0.50208 
 C                     2.35281  -2.38389  -0.89441 
 C                     2.15546   3.37467   0.36107 
 O                     0.7547    4.5914    1.81187 
 H                     3.5862    2.32268  -0.77823 
 C                    -3.74086  -0.78001   1.32496 
 C                    -2.23213  -0.51894   3.24426 
 H                    -0.23935   0.15936   2.75322 
 C                    -3.6509   -0.16846  -1.89685 
 C                    -2.05229   0.79254  -3.49244 
 H                    -0.07423   1.15036  -2.6944 
 C                     1.75324  -3.52526  -0.49312 
 O                     0.00329  -4.94378   0.20088 
 H                     3.35404  -2.38441  -1.27406 
 C                     2.74881   4.74015   0.56841 
 C                     1.85698   5.43106   1.35006 
 C                    -3.50806  -0.85731   2.71907 
 H                    -4.69821  -1.01485   0.90725 
 O                    -1.97285  -0.5785    4.64962 
 C                    -3.34785   0.28843  -3.20195 
 H                    -4.62379  -0.54168  -1.65125 
 O                    -1.73503   1.31108  -4.78824 
 C                     2.27754  -4.92922  -0.39343 
 C                     1.24411  -5.69727   0.08588 
 C                     3.92992   5.29772   0.08979 
 C                     2.05456   6.78294   1.62909 
 H                    -4.29217  -1.16791   3.3768 
 C                    -3.15874  -0.30601   5.39036 
 H                    -4.09496   0.25983  -3.96791 
 C                    -2.45861   0.61708  -5.80558 
 C                     3.53506  -5.44198  -0.67695 
 C                     1.44307  -7.041     0.40393 
 C                     4.17462   6.65425   0.38844 
 H                     4.62379   4.72273  -0.48817 
 C                     3.22998   7.39843   1.14416 
 H                     1.33692   7.33872   2.19954 
 C                    -2.84454  -0.40119   6.89429 
 H                    -3.91404  -1.02079   5.13641 
 H                    -3.50558   0.67651   5.15719 
 C                    -2.09052   1.21549  -7.17842 
 H                    -2.19998  -0.42225  -5.78625 
 H                    -3.50859   0.72412  -5.63708 
 C                     3.75781  -6.80445  -0.39559 
 H                     4.30535  -4.82455  -1.08473 
 C                     2.71767  -7.59977   0.15614 
 H                     0.65238  -7.63334   0.81733 
 H                     5.074     7.12489   0.04266 
 H                     3.4107    8.43374   1.35099 
 O                    -4.02777  -0.12653   7.64798 
 H                    -2.49736  -1.38696   7.12319 
 H                    -2.0872    0.31153   7.14618 
 O                    -2.8072    0.53528  -8.21102 
 H                    -2.34873   2.25394  -7.19176 
 H                    -1.0389    1.10721  -7.34277 
 H                     4.71294  -7.2404   -0.59572 
 H                     2.90138  -8.62836   0.38508 
 H                    -3.83166  -0.19175   8.58552 
 H                    -2.57919   0.91712  -9.06314 
 

 GradGradGradGradGradGradGradGradGradGradGradGradGradGradGradGradGradGrad
 Berny optimization.
 Initialization pass.
                           ----------------------------
                           !    Initial Parameters    !
                           ! (Angstroms and Degrees)  !
 --------------------------                            --------------------------
 ! Name  Definition              Value          Derivative Info.                !
 --------------------------------------------------------------------------------
 ! R1    R(1,2)                  1.5335         estimate D2E/DX2                !
 ! R2    R(1,3)                  1.5281         estimate D2E/DX2                !
 ! R3    R(1,6)                  1.5332         estimate D2E/DX2                !
 ! R4    R(1,7)                  1.5351         estimate D2E/DX2                !
 ! R5    R(2,4)                  1.4134         estimate D2E/DX2                !
 ! R6    R(2,5)                  1.3754         estimate D2E/DX2                !
 ! R7    R(3,8)                  1.4136         estimate D2E/DX2                !
 ! R8    R(3,9)                  1.3711         estimate D2E/DX2                !
 ! R9    R(4,10)                 1.3473         estimate D2E/DX2                !
 ! R10   R(4,11)                 1.0719         estimate D2E/DX2                !
 ! R11   R(5,12)                 1.4122         estimate D2E/DX2                !
 ! R12   R(5,13)                 1.4422         estimate D2E/DX2                !
 ! R13   R(6,14)                 1.3841         estimate D2E/DX2                !
 ! R14   R(6,15)                 1.3406         estimate D2E/DX2                !
 ! R15   R(7,16)                 1.3822         estimate D2E/DX2                !
 ! R16   R(7,17)                 1.3412         estimate D2E/DX2                !
 ! R17   R(8,18)                 1.3428         estimate D2E/DX2                !
 ! R18   R(8,19)                 1.0707         estimate D2E/DX2                !
 ! R19   R(9,13)                 1.4405         estimate D2E/DX2                !
 ! R20   R(9,20)                 1.4135         estimate D2E/DX2                !
 ! R21   R(10,21)                1.3717         estimate D2E/DX2                !
 ! R22   R(10,22)                1.4619         estimate D2E/DX2                !
 ! R23   R(12,21)                1.3462         estimate D2E/DX2                !
 ! R24   R(12,23)                1.0703         estimate D2E/DX2                !
 ! R25   R(14,16)                1.5441         estimate D2E/DX2                !
 ! R26   R(14,24)                1.3484         estimate D2E/DX2                !
 ! R27   R(15,25)                1.4031         estimate D2E/DX2                !
 ! R28   R(15,26)                1.0711         estimate D2E/DX2                !
 ! R29   R(16,27)                1.3492         estimate D2E/DX2                !
 ! R30   R(17,28)                1.4052         estimate D2E/DX2                !
 ! R31   R(17,29)                1.0704         estimate D2E/DX2                !
 ! R32   R(18,30)                1.3691         estimate D2E/DX2                !
 ! R33   R(18,31)                1.4615         estimate D2E/DX2                !
 ! R34   R(20,30)                1.3503         estimate D2E/DX2                !
 ! R35   R(20,32)                1.0708         estimate D2E/DX2                !
 ! R36   R(21,33)                1.5032         estimate D2E/DX2                !
 ! R37   R(22,34)                1.4606         estimate D2E/DX2                !
 ! R38   R(24,35)                1.4155         estimate D2E/DX2                !
 ! R39   R(24,36)                1.0706         estimate D2E/DX2                !
 ! R40   R(25,35)                1.4207         estimate D2E/DX2                !
 ! R41   R(25,37)                1.4303         estimate D2E/DX2                !
 ! R42   R(27,38)                1.4156         estimate D2E/DX2                !
 ! R43   R(27,39)                1.0706         estimate D2E/DX2                !
 ! R44   R(28,38)                1.4202         estimate D2E/DX2                !
 ! R45   R(28,40)                1.4313         estimate D2E/DX2                !
 ! R46   R(30,41)                1.502          estimate D2E/DX2                !
 ! R47   R(31,42)                1.4562         estimate D2E/DX2                !
 ! R48   R(33,34)                1.3725         estimate D2E/DX2                !
 ! R49   R(33,43)                1.391          estimate D2E/DX2                !
 ! R50   R(34,44)                1.3944         estimate D2E/DX2                !
 ! R51   R(35,45)                1.0695         estimate D2E/DX2                !
 ! R52   R(37,46)                1.4245         estimate D2E/DX2                !
 ! R53   R(38,47)                1.0704         estimate D2E/DX2                !
 ! R54   R(40,48)                1.4284         estimate D2E/DX2                !
 ! R55   R(41,42)                1.3739         estimate D2E/DX2                !
 ! R56   R(41,49)                1.3873         estimate D2E/DX2                !
 ! R57   R(42,50)                1.3951         estimate D2E/DX2                !
 ! R58   R(43,51)                1.4104         estimate D2E/DX2                !
 ! R59   R(43,52)                1.0706         estimate D2E/DX2                !
 ! R60   R(44,53)                1.4127         estimate D2E/DX2                !
 ! R61   R(44,54)                1.0721         estimate D2E/DX2                !
 ! R62   R(46,55)                1.5393         estimate D2E/DX2                !
 ! R63   R(46,56)                1.0705         estimate D2E/DX2                !
 ! R64   R(46,57)                1.0677         estimate D2E/DX2                !
 ! R65   R(48,58)                1.5422         estimate D2E/DX2                !
 ! R66   R(48,59)                1.0712         estimate D2E/DX2                !
 ! R67   R(48,60)                1.0688         estimate D2E/DX2                !
 ! R68   R(49,61)                1.4089         estimate D2E/DX2                !
 ! R69   R(49,62)                1.0681         estimate D2E/DX2                !
 ! R70   R(50,63)                1.4136         estimate D2E/DX2                !
 ! R71   R(50,64)                1.071          estimate D2E/DX2                !
 ! R72   R(51,53)                1.4203         estimate D2E/DX2                !
 ! R73   R(51,65)                1.0724         estimate D2E/DX2                !
 ! R74   R(53,66)                1.0711         estimate D2E/DX2                !
 ! R75   R(55,67)                1.4295         estimate D2E/DX2                !
 ! R76   R(55,68)                1.0699         estimate D2E/DX2                !
 ! R77   R(55,69)                1.07           estimate D2E/DX2                !
 ! R78   R(58,70)                1.4292         estimate D2E/DX2                !
 ! R79   R(58,71)                1.0702         estimate D2E/DX2                !
 ! R80   R(58,72)                1.0699         estimate D2E/DX2                !
 ! R81   R(61,63)                1.4209         estimate D2E/DX2                !
 ! R82   R(61,73)                1.0688         estimate D2E/DX2                !
 ! R83   R(63,74)                1.0696         estimate D2E/DX2                !
 ! R84   R(67,75)                0.96           estimate D2E/DX2                !
 ! R85   R(70,76)                0.9612         estimate D2E/DX2                !
 ! A1    A(2,1,3)              108.8933         estimate D2E/DX2                !
 ! A2    A(2,1,6)              114.41           estimate D2E/DX2                !
 ! A3    A(2,1,7)              112.2743         estimate D2E/DX2                !
 ! A4    A(3,1,6)              108.1858         estimate D2E/DX2                !
 ! A5    A(3,1,7)              110.1905         estimate D2E/DX2                !
 ! A6    A(6,1,7)              102.6918         estimate D2E/DX2                !
 ! A7    A(1,2,4)              119.2857         estimate D2E/DX2                !
 ! A8    A(1,2,5)              119.8809         estimate D2E/DX2                !
 ! A9    A(4,2,5)              120.8312         estimate D2E/DX2                !
 ! A10   A(1,3,8)              118.5187         estimate D2E/DX2                !
 ! A11   A(1,3,9)              120.5388         estimate D2E/DX2                !
 ! A12   A(8,3,9)              120.9425         estimate D2E/DX2                !
 ! A13   A(2,4,10)             118.1845         estimate D2E/DX2                !
 ! A14   A(2,4,11)             120.8329         estimate D2E/DX2                !
 ! A15   A(10,4,11)            120.9824         estimate D2E/DX2                !
 ! A16   A(2,5,12)             119.4382         estimate D2E/DX2                !
 ! A17   A(2,5,13)             121.3895         estimate D2E/DX2                !
 ! A18   A(12,5,13)            119.1681         estimate D2E/DX2                !
 ! A19   A(1,6,14)             109.4747         estimate D2E/DX2                !
 ! A20   A(1,6,15)             127.8086         estimate D2E/DX2                !
 ! A21   A(14,6,15)            122.7134         estimate D2E/DX2                !
 ! A22   A(1,7,16)             109.6302         estimate D2E/DX2                !
 ! A23   A(1,7,17)             127.7725         estimate D2E/DX2                !
 ! A24   A(16,7,17)            122.5972         estimate D2E/DX2                !
 ! A25   A(3,8,18)             118.4308         estimate D2E/DX2                !
 ! A26   A(3,8,19)             120.787          estimate D2E/DX2                !
 ! A27   A(18,8,19)            120.7817         estimate D2E/DX2                !
 ! A28   A(3,9,13)             121.0907         estimate D2E/DX2                !
 ! A29   A(3,9,20)             119.2786         estimate D2E/DX2                !
 ! A30   A(13,9,20)            119.6306         estimate D2E/DX2                !
 ! A31   A(4,10,21)            120.4661         estimate D2E/DX2                !
 ! A32   A(4,10,22)            127.125          estimate D2E/DX2                !
 ! A33   A(21,10,22)           112.4087         estimate D2E/DX2                !
 ! A34   A(5,12,21)            117.575          estimate D2E/DX2                !
 ! A35   A(5,12,23)            121.2006         estimate D2E/DX2                !
 ! A36   A(21,12,23)           121.2223         estimate D2E/DX2                !
 ! A37   A(5,13,9)             113.4757         estimate D2E/DX2                !
 ! A38   A(6,14,16)            108.011          estimate D2E/DX2                !
 ! A39   A(6,14,24)            121.9363         estimate D2E/DX2                !
 ! A40   A(16,14,24)           130.0343         estimate D2E/DX2                !
 ! A41   A(6,15,25)            117.6829         estimate D2E/DX2                !
 ! A42   A(6,15,26)            121.1228         estimate D2E/DX2                !
 ! A43   A(25,15,26)           121.1877         estimate D2E/DX2                !
 ! A44   A(7,16,14)            107.866          estimate D2E/DX2                !
 ! A45   A(7,16,27)            122.0127         estimate D2E/DX2                !
 ! A46   A(14,16,27)           130.1028         estimate D2E/DX2                !
 ! A47   A(7,17,28)            117.8459         estimate D2E/DX2                !
 ! A48   A(7,17,29)            120.9745         estimate D2E/DX2                !
 ! A49   A(28,17,29)           121.1769         estimate D2E/DX2                !
 ! A50   A(8,18,30)            120.3198         estimate D2E/DX2                !
 ! A51   A(8,18,31)            126.9595         estimate D2E/DX2                !
 ! A52   A(30,18,31)           112.7208         estimate D2E/DX2                !
 ! A53   A(9,20,30)            117.5596         estimate D2E/DX2                !
 ! A54   A(9,20,32)            121.0968         estimate D2E/DX2                !
 ! A55   A(30,20,32)           121.3424         estimate D2E/DX2                !
 ! A56   A(10,21,12)           123.2026         estimate D2E/DX2                !
 ! A57   A(10,21,33)           106.1312         estimate D2E/DX2                !
 ! A58   A(12,21,33)           130.654          estimate D2E/DX2                !
 ! A59   A(10,22,34)           101.7862         estimate D2E/DX2                !
 ! A60   A(14,24,35)           117.4358         estimate D2E/DX2                !
 ! A61   A(14,24,36)           121.2743         estimate D2E/DX2                !
 ! A62   A(35,24,36)           121.2892         estimate D2E/DX2                !
 ! A63   A(15,25,35)           119.8975         estimate D2E/DX2                !
 ! A64   A(15,25,37)           119.0283         estimate D2E/DX2                !
 ! A65   A(35,25,37)           121.0722         estimate D2E/DX2                !
 ! A66   A(16,27,38)           117.452          estimate D2E/DX2                !
 ! A67   A(16,27,39)           121.3105         estimate D2E/DX2                !
 ! A68   A(38,27,39)           121.2364         estimate D2E/DX2                !
 ! A69   A(17,28,38)           119.7926         estimate D2E/DX2                !
 ! A70   A(17,28,40)           119.1443         estimate D2E/DX2                !
 ! A71   A(38,28,40)           121.0629         estimate D2E/DX2                !
 ! A72   A(18,30,20)           123.2545         estimate D2E/DX2                !
 ! A73   A(18,30,41)           105.8286         estimate D2E/DX2                !
 ! A74   A(20,30,41)           130.9081         estimate D2E/DX2                !
 ! A75   A(18,31,42)           101.8095         estimate D2E/DX2                !
 ! A76   A(21,33,34)           106.2217         estimate D2E/DX2                !
 ! A77   A(21,33,43)           130.6777         estimate D2E/DX2                !
 ! A78   A(34,33,43)           123.0867         estimate D2E/DX2                !
 ! A79   A(22,34,33)           112.3993         estimate D2E/DX2                !
 ! A80   A(22,34,44)           126.941          estimate D2E/DX2                !
 ! A81   A(33,34,44)           120.6595         estimate D2E/DX2                !
 ! A82   A(24,35,25)           119.9199         estimate D2E/DX2                !
 ! A83   A(24,35,45)           120.0627         estimate D2E/DX2                !
 ! A84   A(25,35,45)           120.0173         estimate D2E/DX2                !
 ! A85   A(25,37,46)           110.6128         estimate D2E/DX2                !
 ! A86   A(27,38,28)           119.8962         estimate D2E/DX2                !
 ! A87   A(27,38,47)           120.1129         estimate D2E/DX2                !
 ! A88   A(28,38,47)           119.99           estimate D2E/DX2                !
 ! A89   A(28,40,48)           110.885          estimate D2E/DX2                !
 ! A90   A(30,41,42)           106.4471         estimate D2E/DX2                !
 ! A91   A(30,41,49)           130.4158         estimate D2E/DX2                !
 ! A92   A(42,41,49)           123.1267         estimate D2E/DX2                !
 ! A93   A(31,42,41)           112.2854         estimate D2E/DX2                !
 ! A94   A(31,42,50)           127.0045         estimate D2E/DX2                !
 ! A95   A(41,42,50)           120.7102         estimate D2E/DX2                !
 ! A96   A(33,43,51)           117.3851         estimate D2E/DX2                !
 ! A97   A(33,43,52)           121.386          estimate D2E/DX2                !
 ! A98   A(51,43,52)           121.2277         estimate D2E/DX2                !
 ! A99   A(34,44,53)           118.1384         estimate D2E/DX2                !
 ! A100  A(34,44,54)           120.9457         estimate D2E/DX2                !
 ! A101  A(53,44,54)           120.9152         estimate D2E/DX2                !
 ! A102  A(37,46,55)           109.0435         estimate D2E/DX2                !
 ! A103  A(37,46,56)           109.6517         estimate D2E/DX2                !
 ! A104  A(37,46,57)           109.4438         estimate D2E/DX2                !
 ! A105  A(55,46,56)           109.5428         estimate D2E/DX2                !
 ! A106  A(55,46,57)           109.6676         estimate D2E/DX2                !
 ! A107  A(56,46,57)           109.4774         estimate D2E/DX2                !
 ! A108  A(40,48,58)           108.9409         estimate D2E/DX2                !
 ! A109  A(40,48,59)           109.649          estimate D2E/DX2                !
 ! A110  A(40,48,60)           109.6772         estimate D2E/DX2                !
 ! A111  A(58,48,59)           109.5681         estimate D2E/DX2                !
 ! A112  A(58,48,60)           109.6311         estimate D2E/DX2                !
 ! A113  A(59,48,60)           109.361          estimate D2E/DX2                !
 ! A114  A(41,49,61)           117.3811         estimate D2E/DX2                !
 ! A115  A(41,49,62)           121.2029         estimate D2E/DX2                !
 ! A116  A(61,49,62)           121.414          estimate D2E/DX2                !
 ! A117  A(42,50,63)           117.9922         estimate D2E/DX2                !
 ! A118  A(42,50,64)           121.0263         estimate D2E/DX2                !
 ! A119  A(63,50,64)           120.9803         estimate D2E/DX2                !
 ! A120  A(43,51,53)           120.0812         estimate D2E/DX2                !
 ! A121  A(43,51,65)           119.9571         estimate D2E/DX2                !
 ! A122  A(53,51,65)           119.9616         estimate D2E/DX2                !
 ! A123  A(44,53,51)           120.5149         estimate D2E/DX2                !
 ! A124  A(44,53,66)           119.6855         estimate D2E/DX2                !
 ! A125  A(51,53,66)           119.7994         estimate D2E/DX2                !
 ! A126  A(46,55,67)           109.5286         estimate D2E/DX2                !
 ! A127  A(46,55,68)           109.4039         estimate D2E/DX2                !
 ! A128  A(46,55,69)           109.4671         estimate D2E/DX2                !
 ! A129  A(67,55,68)           109.44           estimate D2E/DX2                !
 ! A130  A(67,55,69)           109.4963         estimate D2E/DX2                !
 ! A131  A(68,55,69)           109.4914         estimate D2E/DX2                !
 ! A132  A(48,58,70)           109.8042         estimate D2E/DX2                !
 ! A133  A(48,58,71)           109.2715         estimate D2E/DX2                !
 ! A134  A(48,58,72)           109.3955         estimate D2E/DX2                !
 ! A135  A(70,58,71)           109.3808         estimate D2E/DX2                !
 ! A136  A(70,58,72)           109.4958         estimate D2E/DX2                !
 ! A137  A(71,58,72)           109.4791         estimate D2E/DX2                !
 ! A138  A(49,61,63)           120.2049         estimate D2E/DX2                !
 ! A139  A(49,61,73)           119.8887         estimate D2E/DX2                !
 ! A140  A(63,61,73)           119.9063         estimate D2E/DX2                !
 ! A141  A(50,63,61)           120.4564         estimate D2E/DX2                !
 ! A142  A(50,63,74)           119.8314         estimate D2E/DX2                !
 ! A143  A(61,63,74)           119.7122         estimate D2E/DX2                !
 ! A144  A(55,67,75)           109.435          estimate D2E/DX2                !
 ! A145  A(58,70,76)           109.4196         estimate D2E/DX2                !
 ! D1    D(3,1,2,4)           -150.0613         estimate D2E/DX2                !
 ! D2    D(3,1,2,5)             30.4743         estimate D2E/DX2                !
 ! D3    D(6,1,2,4)            -28.8915         estimate D2E/DX2                !
 ! D4    D(6,1,2,5)            151.644          estimate D2E/DX2                !
 ! D5    D(7,1,2,4)             87.6356         estimate D2E/DX2                !
 ! D6    D(7,1,2,5)            -91.8288         estimate D2E/DX2                !
 ! D7    D(2,1,3,8)            152.3006         estimate D2E/DX2                !
 ! D8    D(2,1,3,9)            -27.7416         estimate D2E/DX2                !
 ! D9    D(6,1,3,8)             27.3973         estimate D2E/DX2                !
 ! D10   D(6,1,3,9)           -152.6448         estimate D2E/DX2                !
 ! D11   D(7,1,3,8)            -84.1461         estimate D2E/DX2                !
 ! D12   D(7,1,3,9)             95.8118         estimate D2E/DX2                !
 ! D13   D(2,1,6,14)           136.7103         estimate D2E/DX2                !
 ! D14   D(2,1,6,15)           -43.9407         estimate D2E/DX2                !
 ! D15   D(3,1,6,14)          -101.7307         estimate D2E/DX2                !
 ! D16   D(3,1,6,15)            77.6183         estimate D2E/DX2                !
 ! D17   D(7,1,6,14)            14.7804         estimate D2E/DX2                !
 ! D18   D(7,1,6,15)          -165.8706         estimate D2E/DX2                !
 ! D19   D(2,1,7,16)          -137.9685         estimate D2E/DX2                !
 ! D20   D(2,1,7,17)            41.9109         estimate D2E/DX2                !
 ! D21   D(3,1,7,16)           100.4672         estimate D2E/DX2                !
 ! D22   D(3,1,7,17)           -79.6534         estimate D2E/DX2                !
 ! D23   D(6,1,7,16)           -14.6001         estimate D2E/DX2                !
 ! D24   D(6,1,7,17)           165.2793         estimate D2E/DX2                !
 ! D25   D(1,2,4,10)          -176.8609         estimate D2E/DX2                !
 ! D26   D(1,2,4,11)             2.9641         estimate D2E/DX2                !
 ! D27   D(5,2,4,10)             2.5983         estimate D2E/DX2                !
 ! D28   D(5,2,4,11)          -177.5767         estimate D2E/DX2                !
 ! D29   D(1,2,5,12)           176.0629         estimate D2E/DX2                !
 ! D30   D(1,2,5,13)            -3.1894         estimate D2E/DX2                !
 ! D31   D(4,2,5,12)            -3.3931         estimate D2E/DX2                !
 ! D32   D(4,2,5,13)           177.3546         estimate D2E/DX2                !
 ! D33   D(1,3,8,18)          -179.8545         estimate D2E/DX2                !
 ! D34   D(1,3,8,19)             0.3862         estimate D2E/DX2                !
 ! D35   D(9,3,8,18)             0.1878         estimate D2E/DX2                !
 ! D36   D(9,3,8,19)          -179.5715         estimate D2E/DX2                !
 ! D37   D(1,3,9,13)            -2.4813         estimate D2E/DX2                !
 ! D38   D(1,3,9,20)           177.5107         estimate D2E/DX2                !
 ! D39   D(8,3,9,13)           177.4755         estimate D2E/DX2                !
 ! D40   D(8,3,9,20)            -2.5325         estimate D2E/DX2                !
 ! D41   D(2,4,10,21)            1.9864         estimate D2E/DX2                !
 ! D42   D(2,4,10,22)         -178.1827         estimate D2E/DX2                !
 ! D43   D(11,4,10,21)        -177.8383         estimate D2E/DX2                !
 ! D44   D(11,4,10,22)           1.9925         estimate D2E/DX2                !
 ! D45   D(2,5,12,21)           -0.3962         estimate D2E/DX2                !
 ! D46   D(2,5,12,23)         -179.8686         estimate D2E/DX2                !
 ! D47   D(13,5,12,21)         178.8728         estimate D2E/DX2                !
 ! D48   D(13,5,12,23)          -0.5996         estimate D2E/DX2                !
 ! D49   D(2,5,13,9)           -28.8277         estimate D2E/DX2                !
 ! D50   D(12,5,13,9)          151.918          estimate D2E/DX2                !
 ! D51   D(1,6,14,16)           -9.8391         estimate D2E/DX2                !
 ! D52   D(1,6,14,24)          171.5797         estimate D2E/DX2                !
 ! D53   D(15,6,14,16)         170.7722         estimate D2E/DX2                !
 ! D54   D(15,6,14,24)          -7.809          estimate D2E/DX2                !
 ! D55   D(1,6,15,25)         -172.0747         estimate D2E/DX2                !
 ! D56   D(1,6,15,26)            7.0024         estimate D2E/DX2                !
 ! D57   D(14,6,15,25)           7.1958         estimate D2E/DX2                !
 ! D58   D(14,6,15,26)        -173.7271         estimate D2E/DX2                !
 ! D59   D(1,7,16,14)            9.3291         estimate D2E/DX2                !
 ! D60   D(1,7,16,27)         -172.0846         estimate D2E/DX2                !
 ! D61   D(17,7,16,14)        -170.5578         estimate D2E/DX2                !
 ! D62   D(17,7,16,27)           8.0285         estimate D2E/DX2                !
 ! D63   D(1,7,17,28)          174.7673         estimate D2E/DX2                !
 ! D64   D(1,7,17,29)           -4.6359         estimate D2E/DX2                !
 ! D65   D(16,7,17,28)          -5.3675         estimate D2E/DX2                !
 ! D66   D(16,7,17,29)         175.2292         estimate D2E/DX2                !
 ! D67   D(3,8,18,30)            3.7576         estimate D2E/DX2                !
 ! D68   D(3,8,18,31)         -176.2969         estimate D2E/DX2                !
 ! D69   D(19,8,18,30)        -176.4831         estimate D2E/DX2                !
 ! D70   D(19,8,18,31)           3.4624         estimate D2E/DX2                !
 ! D71   D(3,9,13,5)            31.8086         estimate D2E/DX2                !
 ! D72   D(20,9,13,5)         -148.1834         estimate D2E/DX2                !
 ! D73   D(3,9,20,30)            0.9232         estimate D2E/DX2                !
 ! D74   D(3,9,20,32)         -178.6768         estimate D2E/DX2                !
 ! D75   D(13,9,20,30)        -179.0847         estimate D2E/DX2                !
 ! D76   D(13,9,20,32)           1.3153         estimate D2E/DX2                !
 ! D77   D(4,10,21,12)          -6.0707         estimate D2E/DX2                !
 ! D78   D(4,10,21,33)         172.7795         estimate D2E/DX2                !
 ! D79   D(22,10,21,12)        174.0751         estimate D2E/DX2                !
 ! D80   D(22,10,21,33)         -7.0746         estimate D2E/DX2                !
 ! D81   D(4,10,22,34)        -169.6542         estimate D2E/DX2                !
 ! D82   D(21,10,22,34)         10.1881         estimate D2E/DX2                !
 ! D83   D(5,12,21,10)           5.1455         estimate D2E/DX2                !
 ! D84   D(5,12,21,33)        -173.3987         estimate D2E/DX2                !
 ! D85   D(23,12,21,10)       -175.3822         estimate D2E/DX2                !
 ! D86   D(23,12,21,33)          6.0737         estimate D2E/DX2                !
 ! D87   D(6,14,16,7)            0.3225         estimate D2E/DX2                !
 ! D88   D(6,14,16,27)        -178.1103         estimate D2E/DX2                !
 ! D89   D(24,14,16,7)         178.7499         estimate D2E/DX2                !
 ! D90   D(24,14,16,27)          0.3171         estimate D2E/DX2                !
 ! D91   D(6,14,24,35)           3.4897         estimate D2E/DX2                !
 ! D92   D(6,14,24,36)        -176.8027         estimate D2E/DX2                !
 ! D93   D(16,14,24,35)       -174.748          estimate D2E/DX2                !
 ! D94   D(16,14,24,36)          4.9596         estimate D2E/DX2                !
 ! D95   D(6,15,25,35)          -2.8481         estimate D2E/DX2                !
 ! D96   D(6,15,25,37)         176.6329         estimate D2E/DX2                !
 ! D97   D(26,15,25,35)        178.0755         estimate D2E/DX2                !
 ! D98   D(26,15,25,37)         -2.4436         estimate D2E/DX2                !
 ! D99   D(7,16,27,38)          -4.8027         estimate D2E/DX2                !
 ! D100  D(7,16,27,39)         175.576          estimate D2E/DX2                !
 ! D101  D(14,16,27,38)        173.4381         estimate D2E/DX2                !
 ! D102  D(14,16,27,39)         -6.1831         estimate D2E/DX2                !
 ! D103  D(7,17,28,38)           0.1325         estimate D2E/DX2                !
 ! D104  D(7,17,28,40)        -179.7385         estimate D2E/DX2                !
 ! D105  D(29,17,28,38)        179.5345         estimate D2E/DX2                !
 ! D106  D(29,17,28,40)         -0.3365         estimate D2E/DX2                !
 ! D107  D(8,18,30,20)          -5.598          estimate D2E/DX2                !
 ! D108  D(8,18,30,41)         173.4252         estimate D2E/DX2                !
 ! D109  D(31,18,30,20)        174.4492         estimate D2E/DX2                !
 ! D110  D(31,18,30,41)         -6.5276         estimate D2E/DX2                !
 ! D111  D(8,18,31,42)        -170.4693         estimate D2E/DX2                !
 ! D112  D(30,18,31,42)          9.4797         estimate D2E/DX2                !
 ! D113  D(9,20,30,18)           3.1162         estimate D2E/DX2                !
 ! D114  D(9,20,30,41)        -175.6403         estimate D2E/DX2                !
 ! D115  D(32,20,30,18)       -177.2848         estimate D2E/DX2                !
 ! D116  D(32,20,30,41)          3.9586         estimate D2E/DX2                !
 ! D117  D(10,21,33,34)          0.6745         estimate D2E/DX2                !
 ! D118  D(10,21,33,43)       -177.9729         estimate D2E/DX2                !
 ! D119  D(12,21,33,34)        179.4064         estimate D2E/DX2                !
 ! D120  D(12,21,33,43)          0.759          estimate D2E/DX2                !
 ! D121  D(10,22,34,33)         -9.7174         estimate D2E/DX2                !
 ! D122  D(10,22,34,44)        170.4541         estimate D2E/DX2                !
 ! D123  D(14,24,35,25)          0.6906         estimate D2E/DX2                !
 ! D124  D(14,24,35,45)       -179.4469         estimate D2E/DX2                !
 ! D125  D(36,24,35,25)       -179.0169         estimate D2E/DX2                !
 ! D126  D(36,24,35,45)          0.8456         estimate D2E/DX2                !
 ! D127  D(15,25,35,24)         -1.0078         estimate D2E/DX2                !
 ! D128  D(15,25,35,45)        179.1296         estimate D2E/DX2                !
 ! D129  D(37,25,35,24)        179.5221         estimate D2E/DX2                !
 ! D130  D(37,25,35,45)         -0.3405         estimate D2E/DX2                !
 ! D131  D(15,25,37,46)        150.1403         estimate D2E/DX2                !
 ! D132  D(35,25,37,46)        -30.3851         estimate D2E/DX2                !
 ! D133  D(16,27,38,28)         -0.362          estimate D2E/DX2                !
 ! D134  D(16,27,38,47)        179.9988         estimate D2E/DX2                !
 ! D135  D(39,27,38,28)        179.2595         estimate D2E/DX2                !
 ! D136  D(39,27,38,47)         -0.3797         estimate D2E/DX2                !
 ! D137  D(17,28,38,27)          2.6914         estimate D2E/DX2                !
 ! D138  D(17,28,38,47)       -177.6689         estimate D2E/DX2                !
 ! D139  D(40,28,38,27)       -177.44           estimate D2E/DX2                !
 ! D140  D(40,28,38,47)          2.1996         estimate D2E/DX2                !
 ! D141  D(17,28,40,48)        147.0864         estimate D2E/DX2                !
 ! D142  D(38,28,40,48)        -32.783          estimate D2E/DX2                !
 ! D143  D(18,30,41,42)          0.5652         estimate D2E/DX2                !
 ! D144  D(18,30,41,49)       -178.2634         estimate D2E/DX2                !
 ! D145  D(20,30,41,42)        179.4844         estimate D2E/DX2                !
 ! D146  D(20,30,41,49)          0.6559         estimate D2E/DX2                !
 ! D147  D(18,31,42,41)         -9.0298         estimate D2E/DX2                !
 ! D148  D(18,31,42,50)        170.9507         estimate D2E/DX2                !
 ! D149  D(21,33,34,22)          5.9609         estimate D2E/DX2                !
 ! D150  D(21,33,34,44)       -174.1984         estimate D2E/DX2                !
 ! D151  D(43,33,34,22)       -175.2633         estimate D2E/DX2                !
 ! D152  D(43,33,34,44)          4.5774         estimate D2E/DX2                !
 ! D153  D(21,33,43,51)        175.773          estimate D2E/DX2                !
 ! D154  D(21,33,43,52)         -3.8328         estimate D2E/DX2                !
 ! D155  D(34,33,43,51)         -2.6769         estimate D2E/DX2                !
 ! D156  D(34,33,43,52)        177.7173         estimate D2E/DX2                !
 ! D157  D(22,34,44,53)        176.5627         estimate D2E/DX2                !
 ! D158  D(22,34,44,54)         -3.1565         estimate D2E/DX2                !
 ! D159  D(33,34,44,53)         -3.253          estimate D2E/DX2                !
 ! D160  D(33,34,44,54)        177.0278         estimate D2E/DX2                !
 ! D161  D(25,37,46,55)        179.1171         estimate D2E/DX2                !
 ! D162  D(25,37,46,56)         59.1814         estimate D2E/DX2                !
 ! D163  D(25,37,46,57)        -60.9202         estimate D2E/DX2                !
 ! D164  D(28,40,48,58)        179.6668         estimate D2E/DX2                !
 ! D165  D(28,40,48,59)        -60.4308         estimate D2E/DX2                !
 ! D166  D(28,40,48,60)         59.6705         estimate D2E/DX2                !
 ! D167  D(30,41,42,31)          5.5916         estimate D2E/DX2                !
 ! D168  D(30,41,42,50)       -174.3902         estimate D2E/DX2                !
 ! D169  D(49,41,42,31)       -175.4734         estimate D2E/DX2                !
 ! D170  D(49,41,42,50)          4.5448         estimate D2E/DX2                !
 ! D171  D(30,41,49,61)        175.7292         estimate D2E/DX2                !
 ! D172  D(30,41,49,62)         -3.7637         estimate D2E/DX2                !
 ! D173  D(42,41,49,61)         -2.9292         estimate D2E/DX2                !
 ! D174  D(42,41,49,62)        177.5779         estimate D2E/DX2                !
 ! D175  D(31,42,50,63)        176.9745         estimate D2E/DX2                !
 ! D176  D(31,42,50,64)         -2.6297         estimate D2E/DX2                !
 ! D177  D(41,42,50,63)         -3.0466         estimate D2E/DX2                !
 ! D178  D(41,42,50,64)        177.3493         estimate D2E/DX2                !
 ! D179  D(33,43,51,53)         -0.336          estimate D2E/DX2                !
 ! D180  D(33,43,51,65)        179.7969         estimate D2E/DX2                !
 ! D181  D(52,43,51,53)        179.2705         estimate D2E/DX2                !
 ! D182  D(52,43,51,65)         -0.5967         estimate D2E/DX2                !
 ! D183  D(34,44,53,51)          0.3251         estimate D2E/DX2                !
 ! D184  D(34,44,53,66)       -179.4943         estimate D2E/DX2                !
 ! D185  D(54,44,53,51)       -179.9556         estimate D2E/DX2                !
 ! D186  D(54,44,53,66)          0.225          estimate D2E/DX2                !
 ! D187  D(37,46,55,67)        179.8768         estimate D2E/DX2                !
 ! D188  D(37,46,55,68)        -60.1676         estimate D2E/DX2                !
 ! D189  D(37,46,55,69)         59.8134         estimate D2E/DX2                !
 ! D190  D(56,46,55,67)        -60.1202         estimate D2E/DX2                !
 ! D191  D(56,46,55,68)         59.8354         estimate D2E/DX2                !
 ! D192  D(56,46,55,69)        179.8164         estimate D2E/DX2                !
 ! D193  D(57,46,55,67)         60.0524         estimate D2E/DX2                !
 ! D194  D(57,46,55,68)       -179.992          estimate D2E/DX2                !
 ! D195  D(57,46,55,69)        -60.011          estimate D2E/DX2                !
 ! D196  D(40,48,58,70)       -179.8902         estimate D2E/DX2                !
 ! D197  D(40,48,58,71)        -59.9201         estimate D2E/DX2                !
 ! D198  D(40,48,58,72)         59.9217         estimate D2E/DX2                !
 ! D199  D(59,48,58,70)         60.1573         estimate D2E/DX2                !
 ! D200  D(59,48,58,71)       -179.8726         estimate D2E/DX2                !
 ! D201  D(59,48,58,72)        -60.0308         estimate D2E/DX2                !
 ! D202  D(60,48,58,70)        -59.8654         estimate D2E/DX2                !
 ! D203  D(60,48,58,71)         60.1047         estimate D2E/DX2                !
 ! D204  D(60,48,58,72)        179.9465         estimate D2E/DX2                !
 ! D205  D(41,49,61,63)          0.0316         estimate D2E/DX2                !
 ! D206  D(41,49,61,73)       -179.8239         estimate D2E/DX2                !
 ! D207  D(62,49,61,63)        179.5234         estimate D2E/DX2                !
 ! D208  D(62,49,61,73)         -0.3321         estimate D2E/DX2                !
 ! D209  D(42,50,63,61)          0.2463         estimate D2E/DX2                !
 ! D210  D(42,50,63,74)       -179.7442         estimate D2E/DX2                !
 ! D211  D(64,50,63,61)        179.8506         estimate D2E/DX2                !
 ! D212  D(64,50,63,74)         -0.1399         estimate D2E/DX2                !
 ! D213  D(43,51,53,44)          1.451          estimate D2E/DX2                !
 ! D214  D(43,51,53,66)       -178.7297         estimate D2E/DX2                !
 ! D215  D(65,51,53,44)       -178.6819         estimate D2E/DX2                !
 ! D216  D(65,51,53,66)          1.1374         estimate D2E/DX2                !
 ! D217  D(46,55,67,75)        179.6414         estimate D2E/DX2                !
 ! D218  D(68,55,67,75)         59.7078         estimate D2E/DX2                !
 ! D219  D(69,55,67,75)        -60.3131         estimate D2E/DX2                !
 ! D220  D(48,58,70,76)        179.5454         estimate D2E/DX2                !
 ! D221  D(71,58,70,76)         59.6418         estimate D2E/DX2                !
 ! D222  D(72,58,70,76)        -60.3275         estimate D2E/DX2                !
 ! D223  D(49,61,63,50)          1.2416         estimate D2E/DX2                !
 ! D224  D(49,61,63,74)       -178.7679         estimate D2E/DX2                !
 ! D225  D(73,61,63,50)       -178.9029         estimate D2E/DX2                !
 ! D226  D(73,61,63,74)          1.0877         estimate D2E/DX2                !
 --------------------------------------------------------------------------------
 Trust Radius=3.00D-01 FncErr=1.00D-07 GrdErr=1.00D-06 EigMax=2.50D+02 EigMin=1.00D-04
 Number of steps in this run=    456 maximum allowed number of steps=    456.
 GradGradGradGradGradGradGradGradGradGradGradGradGradGradGradGradGradGrad

 Stoichiometry    C41H28O7
 Framework group  C1[X(C41H28O7)]
 Deg. of freedom   222
 Full point group                 C1      NOp   1
 Largest Abelian subgroup         C1      NOp   1
 Largest concise Abelian subgroup C1      NOp   1
                         Standard orientation:                         
 ---------------------------------------------------------------------
 Center     Atomic      Atomic             Coordinates (Angstroms)
 Number     Number       Type             X           Y           Z
 ---------------------------------------------------------------------
      1          6           0       -0.034852    0.076337   -0.378436
      2          6           0       -1.282508   -0.029607    0.506806
      3          6           0        1.188848    0.280934    0.513602
      4          6           0       -2.375245   -0.812743    0.070621
      5          6           0       -1.331458    0.643334    1.705330
      6          6           0        0.218776   -1.148468   -1.265150
      7          6           0       -0.141862    1.216478   -1.400735
      8          6           0        2.445429   -0.170739    0.049580
      9          6           0        1.066082    0.890321    1.735672
     10          6           0       -3.484616   -0.838775    0.834658
     11          1           0       -2.322499   -1.368053   -0.844731
     12          6           0       -2.515763    0.607277    2.473698
     13          8           0       -0.202798    1.399995    2.188614
     14          6           0        0.580079   -0.732143   -2.534762
     15          6           0        0.135016   -2.442005   -0.923327
     16          6           0        0.343072    0.791078   -2.623211
     17          6           0       -0.622433    2.453235   -1.204742
     18          6           0        3.519109    0.007285    0.836177
     19          1           0        2.539573   -0.640198   -0.908142
     20          6           0        2.205845    1.018444    2.561878
     21          6           0       -3.557110   -0.089484    1.981297
     22          8           0       -4.705548   -1.605149    0.591616
     23          1           0       -2.585569    1.122362    3.409316
     24          6           0        1.021548   -1.597015   -3.470337
     25          6           0        0.576776   -3.392584   -1.855958
     26          1           0       -0.242039   -2.738253    0.034487
     27          6           0        0.512497    1.638294   -3.659530
     28          6           0       -0.519594    3.372634   -2.262455
     29          1           0       -1.060932    2.731962   -0.268929
     30          6           0        3.377508    0.543066    2.088113
     31          8           0        4.907564   -0.316124    0.514301
     32          1           0        2.138917    1.470359    3.530322
     33          6           0       -4.971828   -0.215159    2.473584
     34          6           0       -5.614847   -1.040843    1.585630
     35          6           0        1.033452   -2.971886   -3.133752
     36          1           0        1.346016   -1.257255   -4.432339
     37          8           0        0.568517   -4.776242   -1.493711
     38          6           0        0.076586    2.974167   -3.488330
     39          1           0        0.953960    1.311836   -4.578583
     40          8           0       -1.018380    4.701967   -2.081527
     41          6           0        4.730921    0.443572    2.731795
     42          6           0        5.562776   -0.131163    1.801578
     43          6           0       -5.605841    0.363942    3.567965
     44          6           0       -6.986745   -1.267396    1.690687
     45          1           0        1.383692   -3.693645   -3.841086
     46          6           0        0.367242   -5.594212   -2.642487
     47          1           0        0.190381    3.682188   -4.282962
     48          6           0       -0.235184    5.644046   -2.815892
     49          6           0        5.150588    0.804372    4.003943
     50          6           0        6.874934   -0.470550    2.132362
     51          6           0       -6.986798    0.121416    3.720865
     52          1           0       -5.069270    0.975225    4.264039
     53          6           0       -7.677798   -0.680832    2.774193
     54          1           0       -7.502034   -1.873463    0.972026
     55          6           0        0.386793   -7.073086   -2.215729
     56          1           0        1.148222   -5.416075   -3.352572
     57          1           0       -0.576067   -5.360206   -3.084574
     58          6           0       -0.815031    7.056103   -2.596471
     59          1           0        0.778899    5.615196   -2.471983
     60          1           0       -0.263439    5.401991   -3.856524
     61          6           0        6.480736    0.502797    4.357320
     62          1           0        4.487445    1.284358    4.690027
     63          6           0        7.337887   -0.145378    3.427810
     64          1           0        7.514526   -0.956942    1.424336
     65          1           0       -7.516102    0.545024    4.551740
     66          1           0       -8.730561   -0.845333    2.883405
     67          8           0        0.182710   -7.903709   -3.361135
     68          1           0        1.333443   -7.302891   -1.773345
     69          1           0       -0.392234   -7.249073   -1.503598
     70          8           0       -0.045615    8.014284   -3.326186
     71          1           0       -1.828473    7.078985   -2.939466
     72          1           0       -0.785810    7.294111   -1.553810
     73          1           0        6.845301    0.760393    5.328463
     74          1           0        8.340272   -0.388389    3.711209
     75          1           0        0.200743   -8.825772   -3.094369
     76          1           0       -0.415865    8.890995   -3.191302
 ---------------------------------------------------------------------
 Rotational constants (GHZ):           0.0511617           0.0439088           0.0361529
 Standard basis: 6-311++G(d,p) (5D, 7F)
 There are  1300 symmetry adapted cartesian basis functions of A   symmetry.
 There are  1252 symmetry adapted basis functions of A   symmetry.
  1252 basis functions,  1980 primitive gaussians,  1300 cartesian basis functions
   165 alpha electrons      165 beta electrons
       nuclear repulsion energy      5576.5674410639 Hartrees.
 NAtoms=   76 NActive=   76 NUniq=   76 SFac= 1.00D+00 NAtFMM=   60 NAOKFM=T Big=T
 Integral buffers will be    131072 words long.
 Raffenetti 2 integral format.
 Two-electron integral symmetry is turned on.
 Nuclear repulsion after empirical dispersion term =     5576.5035326718 Hartrees.
 One-electron integrals computed using PRISM.
 NBasis=  1252 RedAO= T EigKep=  1.02D-06  NBF=  1252
 NBsUse=  1227 1.00D-06 EigRej=  8.78D-07 NBFU=  1227
 ExpMin= 3.60D-02 ExpMax= 8.59D+03 ExpMxC= 1.30D+03 IAcc=3 IRadAn=         5 AccDes= 0.00D+00
 Harris functional with IExCor= 4639 and IRadAn=       5 diagonalized for initial guess.
 HarFok:  IExCor= 4639 AccDes= 0.00D+00 IRadAn=         5 IDoV= 1 UseB2=F ITyADJ=14
 ICtDFT=  3500011 ScaDFX=  1.000000  1.000000  1.000000  1.000000
 FoFCou: FMM=F IPFlag=           0 FMFlag=      100000 FMFlg1=        2001
         NFxFlg=           0 DoJE=T BraDBF=F KetDBF=T FulRan=T
         wScrn=  0.000000 ICntrl=       500 IOpCl=  0 I1Cent=   200000004 NGrid=           0
         NMat0=    1 NMatS0=      1 NMatT0=    0 NMatD0=    1 NMtDS0=    0 NMtDT0=    0
 Petite list used in FoFCou.
 Requested convergence on RMS density matrix=1.00D-08 within 128 cycles.
 Requested convergence on MAX density matrix=1.00D-06.
 Requested convergence on             energy=1.00D-06.
 No special actions if energy rises.
 SCF Done:  E(RwB97XD) =  -2105.53177489     A.U. after   18 cycles
            NFock= 18  Conv=0.22D-08     -V/T= 2.0041

 **********************************************************************

            Population analysis using the SCF Density.

 **********************************************************************

 Orbital symmetries:
       Occupied  (A) (A) (A) (A) (A) (A) (A) (A) (A) (A) (A) (A)
                 (A) (A) (A) (A) (A) (A) (A) (A) (A) (A) (A) (A)
                 (A) (A) (A) (A) (A) (A) (A) (A) (A) (A) (A) (A)
                 (A) (A) (A) (A) (A) (A) (A) (A) (A) (A) (A) (A)
                 (A) (A) (A) (A) (A) (A) (A) (A) (A) (A) (A) (A)
                 (A) (A) (A) (A) (A) (A) (A) (A) (A) (A) (A) (A)
                 (A) (A) (A) (A) (A) (A) (A) (A) (A) (A) (A) (A)
                 (A) (A) (A) (A) (A) (A) (A) (A) (A) (A) (A) (A)
                 (A) (A) (A) (A) (A) (A) (A) (A) (A) (A) (A) (A)
                 (A) (A) (A) (A) (A) (A) (A) (A) (A) (A) (A) (A)
                 (A) (A) (A) (A) (A) (A) (A) (A) (A) (A) (A) (A)
                 (A) (A) (A) (A) (A) (A) (A) (A) (A) (A) (A) (A)
                 (A) (A) (A) (A) (A) (A) (A) (A) (A) (A) (A) (A)
                 (A) (A) (A) (A) (A) (A) (A) (A) (A)
       Virtual   (A) (A) (A) (A) (A) (A) (A) (A) (A) (A) (A) (A)
                 (A) (A) (A) (A) (A) (A) (A) (A) (A) (A) (A) (A)
                 (A) (A) (A) (A) (A) (A) (A) (A) (A) (A) (A) (A)
                 (A) (A) (A) (A) (A) (A) (A) (A) (A) (A) (A) (A)
                 (A) (A) (A) (A) (A) (A) (A) (A) (A) (A) (A) (A)
                 (A) (A) (A) (A) (A) (A) (A) (A) (A) (A) (A) (A)
                 (A) (A) (A) (A) (A) (A) (A) (A) (A) (A) (A) (A)
                 (A) (A) (A) (A) (A) (A) (A) (A) (A) (A) (A) (A)
                 (A) (A) (A) (A) (A) (A) (A) (A) (A) (A) (A) (A)
                 (A) (A) (A) (A) (A) (A) (A) (A) (A) (A) (A) (A)
                 (A) (A) (A) (A) (A) (A) (A) (A) (A) (A) (A) (A)
                 (A) (A) (A) (A) (A) (A) (A) (A) (A) (A) (A) (A)
                 (A) (A) (A) (A) (A) (A) (A) (A) (A) (A) (A) (A)
                 (A) (A) (A) (A) (A) (A) (A) (A) (A) (A) (A) (A)
                 (A) (A) (A) (A) (A) (A) (A) (A) (A) (A) (A) (A)
                 (A) (A) (A) (A) (A) (A) (A) (A) (A) (A) (A) (A)
                 (A) (A) (A) (A) (A) (A) (A) (A) (A) (A) (A) (A)
                 (A) (A) (A) (A) (A) (A) (A) (A) (A) (A) (A) (A)
                 (A) (A) (A) (A) (A) (A) (A) (A) (A) (A) (A) (A)
                 (A) (A) (A) (A) (A) (A) (A) (A) (A) (A) (A) (A)
                 (A) (A) (A) (A) (A) (A) (A) (A) (A) (A) (A) (A)
                 (A) (A) (A) (A) (A) (A) (A) (A) (A) (A) (A) (A)
                 (A) (A) (A) (A) (A) (A) (A) (A) (A) (A) (A) (A)
                 (A) (A) (A) (A) (A) (A) (A) (A) (A) (A) (A) (A)
                 (A) (A) (A) (A) (A) (A) (A) (A) (A) (A) (A) (A)
                 (A) (A) (A) (A) (A) (A) (A) (A) (A) (A) (A) (A)
                 (A) (A) (A) (A) (A) (A) (A) (A) (A) (A) (A) (A)
                 (A) (A) (A) (A) (A) (A) (A) (A) (A) (A) (A) (A)
                 (A) (A) (A) (A) (A) (A) (A) (A) (A) (A) (A) (A)
                 (A) (A) (A) (A) (A) (A) (A) (A) (A) (A) (A) (A)
                 (A) (A) (A) (A) (A) (A) (A) (A) (A) (A) (A) (A)
                 (A) (A) (A) (A) (A) (A) (A) (A) (A) (A) (A) (A)
                 (A) (A) (A) (A) (A) (A) (A) (A) (A) (A) (A) (A)
                 (A) (A) (A) (A) (A) (A) (A) (A) (A) (A) (A) (A)
                 (A) (A) (A) (A) (A) (A) (A) (A) (A) (A) (A) (A)
                 (A) (A) (A) (A) (A) (A) (A) (A) (A) (A) (A) (A)
                 (A) (A) (A) (A) (A) (A) (A) (A) (A) (A) (A) (A)
                 (A) (A) (A) (A) (A) (A) (A) (A) (A) (A) (A) (A)
                 (A) (A) (A) (A) (A) (A) (A) (A) (A) (A) (A) (A)
                 (A) (A) (A) (A) (A) (A) (A) (A) (A) (A) (A) (A)
                 (A) (A) (A) (A) (A) (A) (A) (A) (A) (A) (A) (A)
                 (A) (A) (A) (A) (A) (A) (A) (A) (A) (A) (A) (A)
                 (A) (A) (A) (A) (A) (A) (A) (A) (A) (A) (A) (A)
                 (A) (A) (A) (A) (A) (A) (A) (A) (A) (A) (A) (A)
                 (A) (A) (A) (A) (A) (A) (A) (A) (A) (A) (A) (A)
                 (A) (A) (A) (A) (A) (A) (A) (A) (A) (A) (A) (A)
                 (A) (A) (A) (A) (A) (A) (A) (A) (A) (A) (A) (A)
                 (A) (A) (A) (A) (A) (A) (A) (A) (A) (A) (A) (A)
                 (A) (A) (A) (A) (A) (A) (A) (A) (A) (A) (A) (A)
                 (A) (A) (A) (A) (A) (A) (A) (A) (A) (A) (A) (A)
                 (A) (A) (A) (A) (A) (A) (A) (A) (A) (A) (A) (A)
                 (A) (A) (A) (A) (A) (A) (A) (A) (A) (A) (A) (A)
                 (A) (A) (A) (A) (A) (A) (A) (A) (A) (A) (A) (A)
                 (A) (A) (A) (A) (A) (A) (A) (A) (A) (A) (A) (A)
                 (A) (A) (A) (A) (A) (A) (A) (A) (A) (A) (A) (A)
                 (A) (A) (A) (A) (A) (A) (A) (A) (A) (A) (A) (A)
                 (A) (A) (A) (A) (A) (A) (A) (A) (A) (A) (A) (A)
                 (A) (A) (A) (A) (A) (A) (A) (A) (A) (A) (A) (A)
                 (A) (A) (A) (A) (A) (A) (A) (A) (A) (A) (A) (A)
                 (A) (A) (A) (A) (A) (A) (A) (A) (A) (A) (A) (A)
                 (A) (A) (A) (A) (A) (A) (A) (A) (A) (A) (A) (A)
                 (A) (A) (A) (A) (A) (A) (A) (A) (A) (A) (A) (A)
                 (A) (A) (A) (A) (A) (A) (A) (A) (A) (A) (A) (A)
                 (A) (A) (A) (A) (A) (A) (A) (A) (A) (A) (A) (A)
                 (A) (A) (A) (A) (A) (A) (A) (A) (A) (A) (A) (A)
                 (A) (A) (A) (A) (A) (A) (A) (A) (A) (A) (A) (A)
                 (A) (A) (A) (A) (A) (A) (A) (A) (A) (A) (A) (A)
                 (A) (A) (A) (A) (A) (A) (A) (A) (A) (A) (A) (A)
                 (A) (A) (A) (A) (A) (A) (A) (A) (A) (A) (A) (A)
                 (A) (A) (A) (A) (A) (A) (A) (A) (A) (A) (A) (A)
                 (A) (A) (A) (A) (A) (A) (A) (A) (A) (A) (A) (A)
                 (A) (A) (A) (A) (A) (A) (A) (A) (A) (A) (A) (A)
                 (A) (A) (A) (A) (A) (A) (A) (A) (A) (A) (A) (A)
                 (A) (A) (A) (A) (A) (A) (A) (A) (A) (A) (A) (A)
                 (A) (A) (A) (A) (A) (A) (A) (A) (A) (A) (A) (A)
                 (A) (A) (A) (A) (A) (A) (A) (A) (A) (A) (A) (A)
                 (A) (A) (A) (A) (A) (A) (A) (A) (A) (A) (A) (A)
                 (A) (A) (A) (A) (A) (A) (A) (A) (A) (A) (A) (A)
                 (A) (A) (A) (A) (A) (A) (A) (A) (A) (A) (A) (A)
                 (A) (A) (A) (A) (A) (A) (A) (A) (A) (A) (A) (A)
                 (A) (A) (A) (A) (A) (A) (A) (A) (A) (A) (A) (A)
                 (A) (A) (A) (A) (A) (A) (A) (A) (A) (A) (A) (A)
                 (A) (A) (A) (A) (A) (A) (A) (A) (A) (A) (A) (A)
                 (A) (A) (A) (A) (A) (A) (A) (A) (A) (A) (A) (A)
                 (A) (A) (A) (A) (A) (A) (A) (A) (A) (A) (A) (A)
                 (A) (A) (A) (A) (A) (A) (A) (A) (A) (A) (A) (A)
                 (A) (A) (A) (A) (A) (A) (A) (A) (A) (A) (A) (A)
                 (A) (A) (A) (A) (A) (A) (A) (A) (A) (A) (A) (A)
                 (A) (A) (A) (A) (A) (A)
 The electronic state is 1-A.
 Alpha  occ. eigenvalues --  -19.30713 -19.30493 -19.30131 -19.28225 -19.27805
 Alpha  occ. eigenvalues --  -19.25614 -19.25481 -10.36515 -10.36365 -10.36272
 Alpha  occ. eigenvalues --  -10.35941 -10.35917 -10.35717 -10.35264 -10.34891
 Alpha  occ. eigenvalues --  -10.33591 -10.33543 -10.33395 -10.33370 -10.33246
 Alpha  occ. eigenvalues --  -10.31656 -10.31480 -10.30922 -10.30819 -10.30683
 Alpha  occ. eigenvalues --  -10.30658 -10.30649 -10.30615 -10.30558 -10.30500
 Alpha  occ. eigenvalues --  -10.30474 -10.30435 -10.30355 -10.30321 -10.30246
 Alpha  occ. eigenvalues --  -10.30212 -10.30163 -10.30081 -10.30027 -10.29959
 Alpha  occ. eigenvalues --  -10.29922 -10.29887 -10.29790 -10.29732 -10.29690
 Alpha  occ. eigenvalues --  -10.29616 -10.29443 -10.28999  -1.16807  -1.16701
 Alpha  occ. eigenvalues --   -1.16564  -1.16035  -1.15501  -1.13198  -1.13025
 Alpha  occ. eigenvalues --   -1.01860  -0.99116  -0.98297  -0.97071  -0.96883
 Alpha  occ. eigenvalues --   -0.96665  -0.93219  -0.89704  -0.89242  -0.88196
 Alpha  occ. eigenvalues --   -0.87825  -0.86970  -0.86249  -0.85740  -0.85382
 Alpha  occ. eigenvalues --   -0.85144  -0.84429  -0.84395  -0.83739  -0.81055
 Alpha  occ. eigenvalues --   -0.79117  -0.76247  -0.75127  -0.73761  -0.73550
 Alpha  occ. eigenvalues --   -0.73046  -0.72935  -0.71071  -0.70557  -0.69786
 Alpha  occ. eigenvalues --   -0.69686  -0.69081  -0.68629  -0.68171  -0.66544
 Alpha  occ. eigenvalues --   -0.64725  -0.63662  -0.63389  -0.61946  -0.61596
 Alpha  occ. eigenvalues --   -0.61338  -0.60863  -0.59883  -0.59509  -0.59087
 Alpha  occ. eigenvalues --   -0.58770  -0.58464  -0.58382  -0.58034  -0.56854
 Alpha  occ. eigenvalues --   -0.55989  -0.55838  -0.55395  -0.55056  -0.54836
 Alpha  occ. eigenvalues --   -0.54598  -0.54334  -0.54286  -0.54056  -0.53629
 Alpha  occ. eigenvalues --   -0.53588  -0.53277  -0.52694  -0.52548  -0.52401
 Alpha  occ. eigenvalues --   -0.51686  -0.51184  -0.51101  -0.50894  -0.50203
 Alpha  occ. eigenvalues --   -0.50129  -0.49527  -0.48870  -0.48548  -0.47437
 Alpha  occ. eigenvalues --   -0.47371  -0.46588  -0.46497  -0.46428  -0.45749
 Alpha  occ. eigenvalues --   -0.45685  -0.45546  -0.45091  -0.45016  -0.44690
 Alpha  occ. eigenvalues --   -0.44321  -0.43831  -0.43741  -0.42900  -0.42716
 Alpha  occ. eigenvalues --   -0.42294  -0.41812  -0.41662  -0.41117  -0.40222
 Alpha  occ. eigenvalues --   -0.38874  -0.37696  -0.37165  -0.37002  -0.36781
 Alpha  occ. eigenvalues --   -0.35175  -0.34225  -0.34071  -0.33746  -0.33439
 Alpha  occ. eigenvalues --   -0.31714  -0.30978  -0.30576  -0.29896  -0.28486
 Alpha virt. eigenvalues --    0.00838   0.01559   0.02587   0.03362   0.03769
 Alpha virt. eigenvalues --    0.04007   0.04131   0.04143   0.04475   0.04848
 Alpha virt. eigenvalues --    0.04917   0.05042   0.05263   0.05334   0.05550
 Alpha virt. eigenvalues --    0.05810   0.05978   0.06041   0.06396   0.06630
 Alpha virt. eigenvalues --    0.06871   0.07014   0.07079   0.07336   0.07584
 Alpha virt. eigenvalues --    0.08085   0.08175   0.08505   0.08615   0.08759
 Alpha virt. eigenvalues --    0.09033   0.09225   0.09538   0.09848   0.10026
 Alpha virt. eigenvalues --    0.10190   0.10501   0.10993   0.11134   0.11368
 Alpha virt. eigenvalues --    0.11687   0.11920   0.12069   0.12332   0.12508
 Alpha virt. eigenvalues --    0.12855   0.13290   0.13465   0.13599   0.13687
 Alpha virt. eigenvalues --    0.13955   0.14150   0.14296   0.14396   0.14815
 Alpha virt. eigenvalues --    0.14902   0.14965   0.15222   0.15376   0.15548
 Alpha virt. eigenvalues --    0.15668   0.15690   0.15841   0.15974   0.16140
 Alpha virt. eigenvalues --    0.16519   0.16578   0.16689   0.16832   0.16974
 Alpha virt. eigenvalues --    0.17099   0.17199   0.17436   0.17550   0.17692
 Alpha virt. eigenvalues --    0.17782   0.18084   0.18128   0.18191   0.18426
 Alpha virt. eigenvalues --    0.18531   0.18630   0.18686   0.19006   0.19156
 Alpha virt. eigenvalues --    0.19270   0.19348   0.19424   0.19482   0.19728
 Alpha virt. eigenvalues --    0.19875   0.19990   0.20112   0.20458   0.20519
 Alpha virt. eigenvalues --    0.20641   0.20728   0.20926   0.21025   0.21144
 Alpha virt. eigenvalues --    0.21381   0.21418   0.21581   0.21908   0.22195
 Alpha virt. eigenvalues --    0.22238   0.22358   0.22499   0.22571   0.22766
 Alpha virt. eigenvalues --    0.22949   0.23133   0.23284   0.23407   0.23701
 Alpha virt. eigenvalues --    0.23796   0.23966   0.24064   0.24183   0.24222
 Alpha virt. eigenvalues --    0.24474   0.24582   0.24754   0.24936   0.25028
 Alpha virt. eigenvalues --    0.25251   0.25418   0.25736   0.26019   0.26078
 Alpha virt. eigenvalues --    0.26199   0.26244   0.26465   0.26740   0.26790
 Alpha virt. eigenvalues --    0.26950   0.27134   0.27287   0.27409   0.27576
 Alpha virt. eigenvalues --    0.27700   0.27877   0.28105   0.28213   0.28371
 Alpha virt. eigenvalues --    0.28439   0.28680   0.28774   0.28934   0.29157
 Alpha virt. eigenvalues --    0.29290   0.29458   0.29682   0.29905   0.30090
 Alpha virt. eigenvalues --    0.30224   0.30286   0.30408   0.30763   0.30945
 Alpha virt. eigenvalues --    0.31165   0.31245   0.31607   0.31673   0.31769
 Alpha virt. eigenvalues --    0.31832   0.32009   0.32333   0.32483   0.32566
 Alpha virt. eigenvalues --    0.32755   0.32831   0.33021   0.33306   0.33506
 Alpha virt. eigenvalues --    0.33581   0.33628   0.33826   0.33898   0.34125
 Alpha virt. eigenvalues --    0.34269   0.34363   0.34642   0.34701   0.34900
 Alpha virt. eigenvalues --    0.35098   0.35163   0.35401   0.35512   0.35789
 Alpha virt. eigenvalues --    0.35923   0.36073   0.36209   0.36337   0.36393
 Alpha virt. eigenvalues --    0.36529   0.36706   0.36856   0.37069   0.37202
 Alpha virt. eigenvalues --    0.37234   0.37420   0.37563   0.37815   0.38154
 Alpha virt. eigenvalues --    0.38288   0.38405   0.38573   0.38611   0.38688
 Alpha virt. eigenvalues --    0.39262   0.39427   0.39540   0.39709   0.40082
 Alpha virt. eigenvalues --    0.40131   0.40223   0.40645   0.40750   0.41020
 Alpha virt. eigenvalues --    0.41088   0.41330   0.41510   0.41631   0.41807
 Alpha virt. eigenvalues --    0.42109   0.42223   0.42443   0.42582   0.42937
 Alpha virt. eigenvalues --    0.43212   0.43391   0.43656   0.43704   0.43773
 Alpha virt. eigenvalues --    0.43849   0.44130   0.44466   0.44497   0.44507
 Alpha virt. eigenvalues --    0.44743   0.44975   0.45196   0.45226   0.45499
 Alpha virt. eigenvalues --    0.45692   0.45894   0.46064   0.46107   0.46378
 Alpha virt. eigenvalues --    0.46707   0.46975   0.47162   0.47389   0.47677
 Alpha virt. eigenvalues --    0.47763   0.47965   0.48286   0.48506   0.48802
 Alpha virt. eigenvalues --    0.49057   0.49484   0.49844   0.49985   0.50264
 Alpha virt. eigenvalues --    0.51004   0.51332   0.51513   0.51601   0.51981
 Alpha virt. eigenvalues --    0.52429   0.52794   0.52976   0.53131   0.53408
 Alpha virt. eigenvalues --    0.53774   0.54063   0.54377   0.55253   0.55732
 Alpha virt. eigenvalues --    0.56253   0.56384   0.56795   0.57159   0.57837
 Alpha virt. eigenvalues --    0.58047   0.58786   0.59550   0.59737   0.60040
 Alpha virt. eigenvalues --    0.60616   0.60990   0.61387   0.61778   0.62100
 Alpha virt. eigenvalues --    0.62346   0.62358   0.62504   0.62759   0.63114
 Alpha virt. eigenvalues --    0.63618   0.63670   0.63778   0.63941   0.64147
 Alpha virt. eigenvalues --    0.64309   0.64868   0.65344   0.65526   0.65714
 Alpha virt. eigenvalues --    0.66027   0.66260   0.66553   0.67114   0.67264
 Alpha virt. eigenvalues --    0.67741   0.67774   0.68232   0.68608   0.68768
 Alpha virt. eigenvalues --    0.68964   0.69501   0.69617   0.69857   0.70228
 Alpha virt. eigenvalues --    0.70284   0.70809   0.71032   0.71206   0.71508
 Alpha virt. eigenvalues --    0.71917   0.72599   0.72793   0.72974   0.73173
 Alpha virt. eigenvalues --    0.73523   0.73585   0.73729   0.74097   0.74299
 Alpha virt. eigenvalues --    0.74787   0.75086   0.75322   0.75703   0.75881
 Alpha virt. eigenvalues --    0.76156   0.76281   0.76825   0.77093   0.77347
 Alpha virt. eigenvalues --    0.77710   0.77932   0.78379   0.78607   0.78692
 Alpha virt. eigenvalues --    0.79036   0.79220   0.79477   0.79741   0.79997
 Alpha virt. eigenvalues --    0.80259   0.80488   0.81006   0.81098   0.81213
 Alpha virt. eigenvalues --    0.81566   0.81773   0.81954   0.82063   0.82330
 Alpha virt. eigenvalues --    0.82880   0.82953   0.83577   0.83794   0.84100
 Alpha virt. eigenvalues --    0.84180   0.84314   0.84748   0.84962   0.85181
 Alpha virt. eigenvalues --    0.85576   0.85929   0.86062   0.86161   0.86797
 Alpha virt. eigenvalues --    0.86885   0.87164   0.87483   0.87922   0.88144
 Alpha virt. eigenvalues --    0.88297   0.88637   0.88869   0.89184   0.89455
 Alpha virt. eigenvalues --    0.89616   0.89929   0.90499   0.90935   0.91604
 Alpha virt. eigenvalues --    0.91697   0.92027   0.92466   0.92666   0.92822
 Alpha virt. eigenvalues --    0.93038   0.93545   0.93766   0.93887   0.94151
 Alpha virt. eigenvalues --    0.94311   0.95011   0.95192   0.95368   0.95832
 Alpha virt. eigenvalues --    0.96002   0.96259   0.96597   0.96922   0.97177
 Alpha virt. eigenvalues --    0.97388   0.97831   0.98147   0.98617   0.99141
 Alpha virt. eigenvalues --    0.99860   0.99939   1.00607   1.00638   1.01355
 Alpha virt. eigenvalues --    1.01573   1.01808   1.02362   1.02851   1.02976
 Alpha virt. eigenvalues --    1.03174   1.03423   1.03635   1.04189   1.04486
 Alpha virt. eigenvalues --    1.04746   1.05073   1.05696   1.05789   1.06305
 Alpha virt. eigenvalues --    1.06534   1.07359   1.07870   1.08093   1.08612
 Alpha virt. eigenvalues --    1.08685   1.09009   1.09177   1.09540   1.09868
 Alpha virt. eigenvalues --    1.10234   1.10654   1.11010   1.11261   1.11361
 Alpha virt. eigenvalues --    1.11508   1.11893   1.12306   1.12820   1.13090
 Alpha virt. eigenvalues --    1.13412   1.13567   1.13909   1.14087   1.14431
 Alpha virt. eigenvalues --    1.14892   1.15458   1.15632   1.15692   1.16073
 Alpha virt. eigenvalues --    1.16159   1.16644   1.17039   1.17359   1.17708
 Alpha virt. eigenvalues --    1.18455   1.18613   1.18815   1.19013   1.19298
 Alpha virt. eigenvalues --    1.19494   1.19790   1.20047   1.20213   1.20450
 Alpha virt. eigenvalues --    1.20843   1.20959   1.21433   1.21796   1.22021
 Alpha virt. eigenvalues --    1.22323   1.23402   1.23783   1.24023   1.24612
 Alpha virt. eigenvalues --    1.24772   1.25271   1.25551   1.25803   1.26381
 Alpha virt. eigenvalues --    1.26926   1.27581   1.28033   1.29236   1.29548
 Alpha virt. eigenvalues --    1.30879   1.31370   1.31862   1.32487   1.32699
 Alpha virt. eigenvalues --    1.34388   1.34587   1.35645   1.35836   1.36895
 Alpha virt. eigenvalues --    1.37301   1.37572   1.37670   1.38048   1.38691
 Alpha virt. eigenvalues --    1.38781   1.39520   1.40430   1.41171   1.41493
 Alpha virt. eigenvalues --    1.41776   1.42849   1.43320   1.43642   1.44118
 Alpha virt. eigenvalues --    1.44403   1.44990   1.45838   1.46188   1.46549
 Alpha virt. eigenvalues --    1.46766   1.46952   1.47257   1.47672   1.48039
 Alpha virt. eigenvalues --    1.48962   1.50371   1.51930   1.53618   1.54479
 Alpha virt. eigenvalues --    1.55147   1.55568   1.56246   1.56289   1.56418
 Alpha virt. eigenvalues --    1.57068   1.57283   1.58159   1.58920   1.59176
 Alpha virt. eigenvalues --    1.59604   1.60230   1.60822   1.61091   1.61437
 Alpha virt. eigenvalues --    1.61835   1.62199   1.62877   1.63099   1.63500
 Alpha virt. eigenvalues --    1.63661   1.63828   1.63921   1.64118   1.64188
 Alpha virt. eigenvalues --    1.64338   1.64722   1.65200   1.65357   1.66009
 Alpha virt. eigenvalues --    1.66577   1.66968   1.67016   1.67347   1.68181
 Alpha virt. eigenvalues --    1.68347   1.68647   1.68868   1.69374   1.69556
 Alpha virt. eigenvalues --    1.69996   1.70471   1.70792   1.71064   1.71845
 Alpha virt. eigenvalues --    1.72351   1.72748   1.72935   1.73140   1.73949
 Alpha virt. eigenvalues --    1.74051   1.74295   1.74555   1.74972   1.75055
 Alpha virt. eigenvalues --    1.75188   1.75358   1.75882   1.76083   1.76506
 Alpha virt. eigenvalues --    1.77541   1.77608   1.78531   1.79078   1.79297
 Alpha virt. eigenvalues --    1.79873   1.80515   1.80961   1.81749   1.82207
 Alpha virt. eigenvalues --    1.82761   1.82977   1.83261   1.83646   1.84354
 Alpha virt. eigenvalues --    1.84492   1.85026   1.85490   1.85823   1.86332
 Alpha virt. eigenvalues --    1.87026   1.87584   1.88741   1.89132   1.89685
 Alpha virt. eigenvalues --    1.90087   1.90574   1.90804   1.91166   1.91615
 Alpha virt. eigenvalues --    1.92434   1.92619   1.93407   1.93628   1.93902
 Alpha virt. eigenvalues --    1.94315   1.94546   1.94822   1.95357   1.95680
 Alpha virt. eigenvalues --    1.96110   1.96290   1.96783   1.97097   1.97387
 Alpha virt. eigenvalues --    1.98019   1.98390   1.98693   1.99417   1.99534
 Alpha virt. eigenvalues --    1.99992   2.00854   2.01121   2.01679   2.02031
 Alpha virt. eigenvalues --    2.02707   2.02983   2.03246   2.03393   2.03727
 Alpha virt. eigenvalues --    2.03972   2.04205   2.04834   2.04972   2.05745
 Alpha virt. eigenvalues --    2.06456   2.06797   2.06920   2.07833   2.08225
 Alpha virt. eigenvalues --    2.08740   2.09069   2.09543   2.09692   2.10438
 Alpha virt. eigenvalues --    2.11051   2.11146   2.11803   2.12027   2.12188
 Alpha virt. eigenvalues --    2.12611   2.13313   2.13782   2.14099   2.14394
 Alpha virt. eigenvalues --    2.14682   2.15023   2.15647   2.15866   2.16495
 Alpha virt. eigenvalues --    2.17257   2.17551   2.17949   2.18019   2.19138
 Alpha virt. eigenvalues --    2.19856   2.20265   2.21079   2.22114   2.22187
 Alpha virt. eigenvalues --    2.22471   2.23040   2.23429   2.24181   2.24374
 Alpha virt. eigenvalues --    2.24584   2.25507   2.26036   2.27111   2.27579
 Alpha virt. eigenvalues --    2.28013   2.29535   2.29645   2.30572   2.31027
 Alpha virt. eigenvalues --    2.32091   2.32664   2.34157   2.34622   2.34790
 Alpha virt. eigenvalues --    2.36071   2.36504   2.37223   2.37618   2.38110
 Alpha virt. eigenvalues --    2.39130   2.40203   2.41241   2.41547   2.42218
 Alpha virt. eigenvalues --    2.42961   2.43386   2.44179   2.44918   2.45750
 Alpha virt. eigenvalues --    2.46204   2.47019   2.49396   2.49534   2.50934
 Alpha virt. eigenvalues --    2.51665   2.51999   2.52823   2.53237   2.54131
 Alpha virt. eigenvalues --    2.54974   2.55037   2.55369   2.55883   2.57498
 Alpha virt. eigenvalues --    2.57888   2.58244   2.59997   2.60183   2.60538
 Alpha virt. eigenvalues --    2.60745   2.61327   2.61729   2.63298   2.63687
 Alpha virt. eigenvalues --    2.64298   2.65798   2.67099   2.67821   2.68155
 Alpha virt. eigenvalues --    2.68504   2.70286   2.70442   2.70999   2.71411
 Alpha virt. eigenvalues --    2.72840   2.73988   2.74140   2.75017   2.75061
 Alpha virt. eigenvalues --    2.75162   2.75555   2.76154   2.76615   2.77768
 Alpha virt. eigenvalues --    2.77927   2.78069   2.79074   2.79221   2.80215
 Alpha virt. eigenvalues --    2.80647   2.80826   2.81414   2.81577   2.81733
 Alpha virt. eigenvalues --    2.82244   2.83418   2.84130   2.84712   2.85082
 Alpha virt. eigenvalues --    2.85335   2.85413   2.86100   2.86617   2.87406
 Alpha virt. eigenvalues --    2.87504   2.87611   2.87850   2.88111   2.88814
 Alpha virt. eigenvalues --    2.89044   2.89153   2.89433   2.89883   2.90366
 Alpha virt. eigenvalues --    2.90671   2.91223   2.91558   2.92442   2.93242
 Alpha virt. eigenvalues --    2.93889   2.94142   2.95282   2.95511   2.95561
 Alpha virt. eigenvalues --    2.96327   2.96825   2.97344   2.97679   2.97979
 Alpha virt. eigenvalues --    2.98754   2.98879   2.99178   2.99709   3.00205
 Alpha virt. eigenvalues --    3.00391   3.00810   3.01128   3.01488   3.02675
 Alpha virt. eigenvalues --    3.03354   3.03532   3.05089   3.05123   3.06053
 Alpha virt. eigenvalues --    3.06611   3.06863   3.07525   3.07812   3.08572
 Alpha virt. eigenvalues --    3.09627   3.10404   3.11159   3.11475   3.12385
 Alpha virt. eigenvalues --    3.12790   3.13379   3.13447   3.14318   3.14861
 Alpha virt. eigenvalues --    3.15970   3.16350   3.16936   3.17631   3.17794
 Alpha virt. eigenvalues --    3.18277   3.18521   3.19238   3.19502   3.20444
 Alpha virt. eigenvalues --    3.20600   3.20942   3.22354   3.22496   3.22630
 Alpha virt. eigenvalues --    3.23544   3.23886   3.24963   3.26313   3.26877
 Alpha virt. eigenvalues --    3.27108   3.27137   3.27631   3.28136   3.28738
 Alpha virt. eigenvalues --    3.29310   3.29991   3.30390   3.31421   3.32327
 Alpha virt. eigenvalues --    3.33088   3.33506   3.33738   3.34821   3.35227
 Alpha virt. eigenvalues --    3.35970   3.37553   3.37721   3.39412   3.40148
 Alpha virt. eigenvalues --    3.41262   3.42479   3.42760   3.44798   3.46465
 Alpha virt. eigenvalues --    3.46948   3.47557   3.48360   3.49060   3.49348
 Alpha virt. eigenvalues --    3.50435   3.54396   3.55087   3.55560   3.56339
 Alpha virt. eigenvalues --    3.57821   3.58677   3.61662   3.62192   3.62682
 Alpha virt. eigenvalues --    3.63783   3.66947   3.68709   3.69165   3.70385
 Alpha virt. eigenvalues --    3.71193   3.74112   3.75020   3.75261   3.76369
 Alpha virt. eigenvalues --    3.77736   3.78746   3.80941   3.82728   3.84515
 Alpha virt. eigenvalues --    3.86563   3.87778   3.89301   3.89778   3.92060
 Alpha virt. eigenvalues --    3.93558   3.94109   3.96682   3.96769   3.97565
 Alpha virt. eigenvalues --    3.97916   3.98149   3.98428   3.99312   4.07494
 Alpha virt. eigenvalues --    4.08784   4.08835   4.13747   4.14450   4.15359
 Alpha virt. eigenvalues --    4.15742   4.15821   4.15950   4.21139   4.21692
 Alpha virt. eigenvalues --    4.21892   4.22374   4.25110   4.25719   4.27212
 Alpha virt. eigenvalues --    4.28628   4.29077   4.29844   4.31147   4.33848
 Alpha virt. eigenvalues --    4.35029   4.35503   4.36260   4.36679   4.37003
 Alpha virt. eigenvalues --    4.39050   4.44755   4.49823   4.54776   4.61848
 Alpha virt. eigenvalues --    4.65333   4.69062   4.91851   4.92164   4.95770
 Alpha virt. eigenvalues --    4.98067   4.98874   5.00584   5.14219   5.14551
 Alpha virt. eigenvalues --    5.15682   5.15874   5.21462   5.21927   5.26888
[...]
 Alpha virt. eigenvalues --    0.75459   0.75641   0.76279   0.76399   0.76552
 Alpha virt. eigenvalues --    0.77074   0.77356   0.77550   0.77609   0.77875
 Alpha virt. eigenvalues --    0.78065   0.78371   0.78890   0.79177   0.79198
 Alpha virt. eigenvalues --    0.79521   0.79782   0.80107   0.80394   0.80557
 Alpha virt. eigenvalues --    0.80568   0.80841   0.81411   0.81598   0.81643
 Alpha virt. eigenvalues --    0.81972   0.82309   0.82382   0.82735   0.83308
 Alpha virt. eigenvalues --    0.83582   0.83939   0.84016   0.84266   0.84383
 Alpha virt. eigenvalues --    0.84412   0.84840   0.85296   0.85553   0.85843
 Alpha virt. eigenvalues --    0.86441   0.86516   0.86777   0.87241   0.87361
 Alpha virt. eigenvalues --    0.87950   0.88071   0.88245   0.88809   0.89187
 Alpha virt. eigenvalues --    0.89242   0.89503   0.90055   0.90263   0.91048
 Alpha virt. eigenvalues --    0.91375   0.91710   0.92141   0.92199   0.92649
 Alpha virt. eigenvalues --    0.92913   0.93050   0.93307   0.93515   0.93538
 Alpha virt. eigenvalues --    0.94133   0.94358   0.94779   0.95022   0.95079
 Alpha virt. eigenvalues --    0.95600   0.95747   0.95962   0.96038   0.96619
 Alpha virt. eigenvalues --    0.97009   0.97370   0.97468   0.97796   0.98131
 Alpha virt. eigenvalues --    0.98403   0.99409   0.99683   0.99775   1.01132
 Alpha virt. eigenvalues --    1.01547   1.02049   1.02484   1.02921   1.02923
 Alpha virt. eigenvalues --    1.03609   1.03678   1.04291   1.04529   1.05211
 Alpha virt. eigenvalues --    1.05267   1.05500   1.05639   1.06500   1.06980
 Alpha virt. eigenvalues --    1.07194   1.07285   1.07296   1.07903   1.08341
 Alpha virt. eigenvalues --    1.08394   1.08565   1.09645   1.09703   1.09764
 Alpha virt. eigenvalues --    1.09878   1.10183   1.10261   1.10943   1.11316
 Alpha virt. eigenvalues --    1.11524   1.11683   1.11925   1.12049   1.12572
 Alpha virt. eigenvalues --    1.12790   1.12846   1.13155   1.13286   1.13464
 Alpha virt. eigenvalues --    1.14117   1.14138   1.14518   1.15024   1.15581
 Alpha virt. eigenvalues --    1.16069   1.16402   1.16688   1.16989   1.17343
 Alpha virt. eigenvalues --    1.17603   1.17657   1.18162   1.18540   1.18894
 Alpha virt. eigenvalues --    1.19044   1.19253   1.19905   1.19959   1.20492
 Alpha virt. eigenvalues --    1.20707   1.20980   1.21049   1.21392   1.21529
 Alpha virt. eigenvalues --    1.22214   1.22308   1.22422   1.22666   1.23216
 Alpha virt. eigenvalues --    1.23602   1.24338   1.24410   1.24947   1.25136
 Alpha virt. eigenvalues --    1.25702   1.26581   1.27177   1.27457   1.27737
 Alpha virt. eigenvalues --    1.28553   1.29334   1.29738   1.31503   1.32357
 Alpha virt. eigenvalues --    1.32510   1.32867   1.32993   1.33090   1.33933
 Alpha virt. eigenvalues --    1.35703   1.36395   1.36731   1.36745   1.37349
 Alpha virt. eigenvalues --    1.37941   1.38222   1.38483   1.39090   1.39765
 Alpha virt. eigenvalues --    1.40661   1.41041   1.41227   1.41809   1.42140
 Alpha virt. eigenvalues --    1.42768   1.44353   1.44362   1.44766   1.44996
 Alpha virt. eigenvalues --    1.45514   1.45995   1.46680   1.47012   1.47631
 Alpha virt. eigenvalues --    1.47820   1.48337   1.48844   1.50066   1.51543
 Alpha virt. eigenvalues --    1.52438   1.53015   1.54122   1.54602   1.55619
 Alpha virt. eigenvalues --    1.55951   1.56387   1.56679   1.57031   1.57970
 Alpha virt. eigenvalues --    1.58119   1.58242   1.59298   1.59510   1.60457
 Alpha virt. eigenvalues --    1.60716   1.61340   1.61372   1.62046   1.63001
 Alpha virt. eigenvalues --    1.63136   1.63954   1.64106   1.64216   1.64276
 Alpha virt. eigenvalues --    1.64649   1.65049   1.65104   1.65351   1.65399
 Alpha virt. eigenvalues --    1.66087   1.66285   1.66320   1.66449   1.66653
 Alpha virt. eigenvalues --    1.67070   1.67525   1.68292   1.68536   1.69226
 Alpha virt. eigenvalues --    1.69525   1.69732   1.70249   1.70766   1.71219
 Alpha virt. eigenvalues --    1.71883   1.72587   1.73007   1.73214   1.73286
 Alpha virt. eigenvalues --    1.73697   1.74062   1.74502   1.74522   1.74780
 Alpha virt. eigenvalues --    1.74949   1.75244   1.75363   1.75972   1.75989
 Alpha virt. eigenvalues --    1.76090   1.76926   1.77363   1.77653   1.78179
 Alpha virt. eigenvalues --    1.78256   1.78702   1.79546   1.79985   1.80344
 Alpha virt. eigenvalues --    1.80712   1.81351   1.82169   1.82631   1.82784
 Alpha virt. eigenvalues --    1.83472   1.83910   1.84497   1.84529   1.84571
 Alpha virt. eigenvalues --    1.85482   1.87125   1.87437   1.87641   1.88459
 Alpha virt. eigenvalues --    1.88717   1.88977   1.89068   1.89827   1.90298
 Alpha virt. eigenvalues --    1.90561   1.90909   1.90955   1.91490   1.91710
 Alpha virt. eigenvalues --    1.92854   1.93949   1.94187   1.94527   1.94569
 Alpha virt. eigenvalues --    1.95500   1.96070   1.96634   1.96948   1.96995
 Alpha virt. eigenvalues --    1.97256   1.97810   1.98159   1.98185   1.98539
 Alpha virt. eigenvalues --    1.99106   1.99521   1.99892   2.00317   2.00504
 Alpha virt. eigenvalues --    2.00798   2.01147   2.01437   2.01744   2.02073
 Alpha virt. eigenvalues --    2.02508   2.02789   2.03626   2.03747   2.05068
 Alpha virt. eigenvalues --    2.05252   2.05610   2.05908   2.06076   2.06333
 Alpha virt. eigenvalues --    2.07361   2.07894   2.08157   2.09124   2.09452
 Alpha virt. eigenvalues --    2.09774   2.10898   2.11258   2.11439   2.11729
 Alpha virt. eigenvalues --    2.12723   2.13182   2.13308   2.13375   2.14221
 Alpha virt. eigenvalues --    2.14963   2.15097   2.15324   2.15898   2.16725
 Alpha virt. eigenvalues --    2.17608   2.17650   2.18768   2.19214   2.19629
 Alpha virt. eigenvalues --    2.19736   2.20290   2.20650   2.21357   2.21619
 Alpha virt. eigenvalues --    2.21888   2.23021   2.23239   2.23294   2.23647
 Alpha virt. eigenvalues --    2.24365   2.24648   2.24988   2.26205   2.27201
 Alpha virt. eigenvalues --    2.28292   2.28384   2.29134   2.29467   2.30037
 Alpha virt. eigenvalues --    2.30599   2.30872   2.31524   2.32046   2.34232
 Alpha virt. eigenvalues --    2.34748   2.35213   2.36109   2.36381   2.36785
 Alpha virt. eigenvalues --    2.37041   2.37197   2.37512   2.39747   2.40762
 Alpha virt. eigenvalues --    2.41645   2.42511   2.42572   2.43943   2.44061
 Alpha virt. eigenvalues --    2.44969   2.46451   2.46685   2.47705   2.48162
 Alpha virt. eigenvalues --    2.49710   2.50070   2.50416   2.51534   2.52180
 Alpha virt. eigenvalues --    2.52221   2.53138   2.54276   2.54974   2.55011
 Alpha virt. eigenvalues --    2.55693   2.55811   2.55864   2.56618   2.57836
 Alpha virt. eigenvalues --    2.58527   2.58698   2.58826   2.59798   2.60331
 Alpha virt. eigenvalues --    2.60527   2.62802   2.64123   2.64825   2.65140
 Alpha virt. eigenvalues --    2.65709   2.66695   2.66868   2.67168   2.68671
 Alpha virt. eigenvalues --    2.69748   2.69867   2.70690   2.71307   2.73494
 Alpha virt. eigenvalues --    2.74724   2.75384   2.75390   2.75905   2.76187
 Alpha virt. eigenvalues --    2.76398   2.76613   2.76728   2.77155   2.78377
 Alpha virt. eigenvalues --    2.79558   2.80133   2.80443   2.81956   2.82025
 Alpha virt. eigenvalues --    2.82186   2.82313   2.82612   2.82881   2.84430
 Alpha virt. eigenvalues --    2.84767   2.85102   2.85191   2.85781   2.85845
 Alpha virt. eigenvalues --    2.85949   2.87191   2.87572   2.87892   2.88031
 Alpha virt. eigenvalues --    2.88638   2.88895   2.89172   2.89382   2.89624
 Alpha virt. eigenvalues --    2.89968   2.90448   2.90975   2.91964   2.93192
 Alpha virt. eigenvalues --    2.93297   2.93437   2.93478   2.93753   2.94830
 Alpha virt. eigenvalues --    2.94947   2.95599   2.96032   2.96560   2.96624
 Alpha virt. eigenvalues --    2.97587   2.97782   2.98201   2.99526   2.99751
 Alpha virt. eigenvalues --    3.00284   3.00385   3.00770   3.01052   3.02149
 Alpha virt. eigenvalues --    3.04569   3.04858   3.05290   3.05995   3.07421
 Alpha virt. eigenvalues --    3.07441   3.08582   3.09047   3.09294   3.10496
 Alpha virt. eigenvalues --    3.11322   3.11445   3.11681   3.12803   3.13823
 Alpha virt. eigenvalues --    3.14231   3.14606   3.15181   3.15340   3.15829
 Alpha virt. eigenvalues --    3.16351   3.16514   3.17174   3.17341   3.19020
 Alpha virt. eigenvalues --    3.19308   3.19531   3.19666   3.20161   3.20590
 Alpha virt. eigenvalues --    3.21162   3.21347   3.22437   3.23402   3.24269
 Alpha virt. eigenvalues --    3.25197   3.25306   3.26374   3.27176   3.27826
 Alpha virt. eigenvalues --    3.28146   3.28361   3.28646   3.28843   3.29081
 Alpha virt. eigenvalues --    3.29334   3.30031   3.30877   3.33501   3.34027
 Alpha virt. eigenvalues --    3.34632   3.35100   3.36631   3.36707   3.36912
 Alpha virt. eigenvalues --    3.37086   3.37328   3.37548   3.38969   3.39455
 Alpha virt. eigenvalues --    3.40056   3.42053   3.43694   3.44091   3.44535
 Alpha virt. eigenvalues --    3.47869   3.48025   3.49041   3.50072   3.51464
 Alpha virt. eigenvalues --    3.51846   3.52597   3.52984   3.53943   3.55165
 Alpha virt. eigenvalues --    3.56508   3.56571   3.57801   3.60452   3.61731
 Alpha virt. eigenvalues --    3.63912   3.64362   3.65415   3.65536   3.67429
 Alpha virt. eigenvalues --    3.71334   3.71459   3.72712   3.73632   3.74057
 Alpha virt. eigenvalues --    3.75338   3.75794   3.77488   3.79222   3.79664
 Alpha virt. eigenvalues --    3.80584   3.81939   3.82999   3.84397   3.84850
 Alpha virt. eigenvalues --    3.86129   3.88625   3.88766   3.89080   3.91858
 Alpha virt. eigenvalues --    3.92002   3.92030   3.94958   3.95483   3.97380
 Alpha virt. eigenvalues --    3.97878   4.01665   4.07994   4.09463   4.09660
 Alpha virt. eigenvalues --    4.13410   4.13411   4.15255   4.15335   4.19144
 Alpha virt. eigenvalues --    4.19821   4.20239   4.22862   4.25661   4.25829
 Alpha virt. eigenvalues --    4.27693   4.30861   4.31573   4.33352   4.33597
 Alpha virt. eigenvalues --    4.34378   4.35399   4.36457   4.37051   4.38188
 Alpha virt. eigenvalues --    4.39782   4.40099   4.40726   4.41468   4.47487
 Alpha virt. eigenvalues --    4.53003   4.60619   4.67600   4.72006   4.75380
 Alpha virt. eigenvalues --    4.94185   4.94508   4.97194   4.98520   5.00317
 Alpha virt. eigenvalues --    5.01520   5.12203   5.12585   5.14774   5.14914
 Alpha virt. eigenvalues --    5.17121   5.17901   5.24774   5.49515   5.49722
 Alpha virt. eigenvalues --    5.55526   5.55722   5.58128   5.59234   5.60266
 Alpha virt. eigenvalues --    5.79016   5.79246   5.96188   5.98034   6.03703
 Alpha virt. eigenvalues --    6.05124   6.08775  23.69440  23.71575  23.77283
 Alpha virt. eigenvalues --   23.83932  23.84393  23.88760  23.97339  23.97569
 Alpha virt. eigenvalues --   24.02384  24.02887  24.04745  24.07848  24.08004
 Alpha virt. eigenvalues --   24.08091  24.08209  24.09686  24.10473  24.10684
 Alpha virt. eigenvalues --   24.11644  24.12644  24.14258  24.15099  24.16117
 Alpha virt. eigenvalues --   24.18409  24.21468  24.22032  24.22251  24.23314
 Alpha virt. eigenvalues --   24.24239  24.24251  24.26091  24.26584  24.26934
 Alpha virt. eigenvalues --   24.27920  24.29147  24.32142  24.32920  24.34175
 Alpha virt. eigenvalues --   24.34660  24.34994  24.36925  50.05572  50.05718
 Alpha virt. eigenvalues --   50.12310  50.12405  50.12946  50.13320  50.16576
          Condensed to atoms (all electrons):
 Mulliken charges:
               1
     1  C    1.532796
     2  C    0.069249
     3  C    0.069479
     4  C   -1.107331
     5  C   -0.110566
     6  C    0.734436
     7  C    0.051063
     8  C   -1.107401
     9  C   -0.110586
    10  C   -0.425540
    11  H    0.290814
    12  C   -0.271350
    13  O   -0.104807
    14  C    0.105503
    15  C   -0.721105
    16  C    0.219039
    17  C   -0.950487
    18  C   -0.425617
    19  H    0.290803
    20  C   -0.271341
    21  C    1.003050
    22  O   -0.012180
    23  H    0.216022
    24  C   -0.257571
    25  C   -0.703332
    26  H    0.255195
    27  C   -0.299380
    28  C   -0.339120
    29  H    0.291544
    30  C    1.002802
    31  O   -0.012178
    32  H    0.216028
    33  C    1.090447
    34  C   -0.522574
    35  C    0.068485
    36  H    0.214608
    37  O   -0.081945
    38  C    0.093138
    39  H    0.180201
    40  O   -0.064458
    41  C    1.090370
    42  C   -0.522644
    43  C   -0.250010
    44  C   -0.641410
    45  H    0.229151
    46  C   -0.399583
    47  H    0.233070
    48  C   -0.376826
    49  C   -0.249963
    50  C   -0.641381
    51  C   -0.223967
    52  H    0.165594
    53  C   -0.438191
    54  H    0.232769
    55  C   -0.172775
    56  H    0.189654
    57  H    0.189587
    58  C   -0.191430
    59  H    0.187178
    60  H    0.187237
    61  C   -0.223998
    62  H    0.165593
    63  C   -0.438135
    64  H    0.232769
    65  H    0.218587
    66  H    0.204484
    67  O   -0.262753
    68  H    0.181297
    69  H    0.181284
    70  O   -0.264108
    71  H    0.179961
    72  H    0.179958
    73  H    0.218584
    74  H    0.204485
    75  H    0.265142
    76  H    0.264591
 Sum of Mulliken charges =  -0.00000
 Mulliken charges with hydrogens summed into heavy atoms:
               1
     1  C    1.532796
     2  C    0.069249
     3  C    0.069479
     4  C   -0.816518
     5  C   -0.110566
     6  C    0.734436
     7  C    0.051063
     8  C   -0.816598
     9  C   -0.110586
    10  C   -0.425540
    12  C   -0.055328
    13  O   -0.104807
    14  C    0.105503
    15  C   -0.465910
    16  C    0.219039
    17  C   -0.658943
    18  C   -0.425617
    20  C   -0.055314
    21  C    1.003050
    22  O   -0.012180
    24  C   -0.042963
    25  C   -0.703332
    27  C   -0.119179
    28  C   -0.339120
    30  C    1.002802
    31  O   -0.012178
    33  C    1.090447
    34  C   -0.522574
    35  C    0.297635
    37  O   -0.081945
    38  C    0.326208
    40  O   -0.064458
    41  C    1.090370
    42  C   -0.522644
    43  C   -0.084416
    44  C   -0.408641
    46  C   -0.020343
    48  C   -0.002411
    49  C   -0.084370
    50  C   -0.408612
    51  C   -0.005380
    53  C   -0.233708
    55  C    0.189806
    58  C    0.168489
    61  C   -0.005414
    63  C   -0.233650
    67  O    0.002389
    70  O    0.000483
 Electronic spatial extent (au):  <R**2>=          34387.0049
 Charge=             -0.0000 electrons
 Dipole moment (field-independent basis, Debye):
    X=             -0.0004    Y=              0.1201    Z=              1.3855  Tot=              1.3907
 Quadrupole moment (field-independent basis, Debye-Ang):
   XX=           -259.2101   YY=           -234.0301   ZZ=           -261.5983
   XY=              0.0393   XZ=             -0.0021   YZ=              5.4383
 Traceless Quadrupole moment (field-independent basis, Debye-Ang):
   XX=             -7.5973   YY=             17.5827   ZZ=             -9.9855
   XY=              0.0393   XZ=             -0.0021   YZ=              5.4383
 Octapole moment (field-independent basis, Debye-Ang**2):
  XXX=             -0.0090  YYY=             -8.0371  ZZZ=             13.7748  XYY=             -0.0343
  XXY=            -17.7674  XXZ=             94.8359  XZZ=              0.0197  YZZ=             32.0002
  YYZ=             36.1562  XYZ=             -0.0882
 Hexadecapole moment (field-independent basis, Debye-Ang**3):
 XXXX=         -18628.0689 YYYY=         -10470.5047 ZZZZ=          -9191.3454 XXXY=             -0.4469
 XXXZ=              0.1121 YYYX=              4.2799 YYYZ=           -592.2026 ZZZX=             -0.0298
 ZZZY=            353.9677 XXYY=          -6380.3414 XXZZ=          -4737.3586 YYZZ=          -4850.9839
 XXYZ=            176.5999 YYXZ=             -0.3830 ZZXY=              0.0800
 N-N= 5.587800302624D+03 E-N=-1.608459991931D+04  KE= 2.097579572922D+03
 Unable to Open any file for archive entry.
 1\1\GINC-SKKUPSL\FOpt\RwB97XD\6-311++G(d,p)\C41H28O7\PSL\26-Oct-2025\0
 \\# opt wb97xd/6-311++g(d,p) geom=connectivity\\DBFX_OPT_WB97XD_6-311+
 +GDP_G_251022\\0,1\C,-0.4750006085,0.0066446569,0.0377851787\C,0.42299
 60011,1.2268846755,0.1765646074\C,0.3681551557,-1.2564413248,-0.053551
 763\C,-0.0680336615,2.4225934523,0.6970220695\C,1.7378856897,1.1734951
 911,-0.2998250788\C,-1.5201812071,-0.0726559516,1.1428873074\C,-1.3649
 756844,0.1412982966,-1.2034904499\C,-0.1768378743,-2.5047412729,0.2404
 140797\C,1.6860280582,-1.1740633615,-0.5174181571\C,0.7738485667,3.512
 7967583,0.7087876926\H,-1.0816493589,2.4913888809,1.071715879\C,2.5807
 633968,2.2755868902,-0.2822393212\O,2.2656774578,0.0268868541,-0.83371
 9097\C,-2.8140429137,0.0049218786,0.6146455421\C,-1.30061782,-0.202921
 7712,2.4959918004\C,-2.7179513211,0.1379186649,-0.8438348568\C,-0.9667
 45733,0.2539890232,-2.5158434995\C,0.6164487558,-3.6143527718,0.048240
 2434\H,-1.1939933694,-2.5967795701,0.600232609\C,2.4797469841,-2.29645
 59207,-0.7060876933\C,2.0856441335,3.4671585523,0.2273978121\O,0.45052
 8433,4.7569532268,1.1811554155\H,3.5915151587,2.1787769171,-0.65863497
 2\C,-3.9042700486,-0.0500296111,1.4676022866\C,-2.4037234051,-0.257958
 4912,3.3529179245\H,-0.3011590777,-0.2635193027,2.9114111813\C,-3.6857
 425223,0.2503456132,-1.8269566975\C,-1.9487980974,0.3672626034,-3.5049
 573065\H,0.0784897875,0.2576042082,-2.8043830268\C,1.9308848156,-3.538
 5424271,-0.4219874201\O,0.237042525,-4.9087429798,0.2853029593\H,3.495
 270087,-2.1764964702,-1.0624399207\C,2.6113305472,4.8041131632,0.42520
 47963\C,1.5634721336,5.5270391698,1.0052054098\C,-3.7004458313,-0.1817
 597681,2.8401832609\H,-4.916603428,0.0080705778,1.082642655\O,-2.11344
 71109,-0.3867077145,4.6725942748\C,-3.3020397706,0.3654910375,-3.16250
 67736\H,-4.7405684073,0.2502945085,-1.574008938\O,-1.4860314828,0.4746
 933164,-4.776743586\C,2.3966947213,-4.9107990658,-0.475386762\C,1.3158
 643952,-5.6813862705,-0.0337571197\C,3.8251738154,5.4401616276,0.17608
 82801\C,1.6690870029,6.8633127374,1.3498278059\H,-4.5580636597,-0.2238
 21165,3.4985520058\C,-3.1778874584,-0.4488771692,5.5995127261\H,-4.065
 5727189,0.4528644497,-3.9239901548\C,-2.4183874324,0.5933403614,-5.831
 1867365\C,3.5824751771,-5.5427964704,-0.8421822359\C,1.3614485269,-7.0
 615534985,0.0590179991\C,3.9522380522,6.77951482,0.514534225\H,4.65166
 09848,4.900830407,-0.2724867536\C,2.8871076125,7.4795526349,1.09339756
 02\H,0.8384360148,7.3944932712,1.7968940914\C,-2.5537358733,-0.5898235
 216,6.9727493417\H,-3.8243041229,-1.3107902389,5.3957121244\H,-3.78493
 18309,0.463377933,5.5599173718\C,-1.6172367472,0.6945640715,-7.1130112
 351\H,-3.0757018607,-0.2833121315,-5.8728537513\H,-3.0362657289,1.4907
 726953,-5.7080759975\C,3.6493734926,-6.9257933287,-0.756141376\H,4.433
 5830467,-4.9669558978,-1.1874367096\C,2.552299371,-7.6729345607,-0.311
 3425189\H,0.5065509019,-7.6289304153,0.4043222643\H,4.8879281465,7.293
 8630413,0.3292561499\H,3.0142814807,8.525584268,1.347741323\O,-3.62403
 12307,-0.6517737906,7.8963026935\H,-1.9419598009,-1.4996770226,7.00006
 05188\H,-1.9029078697,0.2719468689,7.1641212292\O,-2.5551945465,0.8133
 062354,-8.1660942072\H,-0.9570390807,1.5686590989,-7.0584633648\H,-0.9
 965338599,-0.2029351473,-7.2230148325\H,4.5623482948,-7.4378261443,-1.
 0366713589\H,2.6325000499,-8.7524409698,-0.2540689926\H,-3.2684459377,
 -0.7405184993,8.7799528981\H,-2.0845052707,0.8790400592,-8.996303939\\
 Version=ES64L-G16RevC.01\State=1-A\HF=-2105.6281309\RMSD=5.982e-09\RMS
 F=2.083e-06\Dipole=0.5462126,-0.0145142,0.0282938\Quadrupole=-5.901849
 ,-5.5337712,11.4356202,0.6249977,-6.6938215,-1.4104359\PG=C01 [X(C41H2
 8O7)]\\@
 The archive entry for this job was punched.


 TIMES HAVE CHANGED. IN THE BIBLE WHEN AN ASS
 SPOKE IT WAS CONSIDERED A MIRACLE.
 Job cpu time:       3 days 17 hours 46 minutes 56.2 seconds.
 Elapsed time:       3 days 18 hours 41 minutes 56.7 seconds.
 File lengths (MBytes):  RWF=    921 Int=      0 D2E=      0 Chk=    113 Scr=      1
 Normal termination of Gaussian 16 at Sun Oct 26 17:30:55 2025.
