 Entering Gaussian System, Link 0=g16
 Initial command:
 /home/psl/g16/l1.exe "/home/psl/g16/scratch/Gau-1103333.inp" -scrdir="/home/psl/g16/scratch/"
 Entering Link 1 = /home/psl/g16/l1.exe PID=   1103335.
  
 Copyright (c) 1988-2019, Gaussian, Inc.  All Rights Reserved.
  
 This is part of the Gaussian(R) 16 program.  It is based on
 the Gaussian(R) 09 system (copyright 2009, Gaussian, Inc.),
 the Gaussian(R) 03 system (copyright 2003, Gaussian, Inc.),
 the Gaussian(R) 98 system (copyright 1998, Gaussian, Inc.),
 the Gaussian(R) 94 system (copyright 1995, Gaussian, Inc.),
 the Gaussian 92(TM) system (copyright 1992, Gaussian, Inc.),
 the Gaussian 90(TM) system (copyright 1990, Gaussian, Inc.),
 the Gaussian 88(TM) system (copyright 1988, Gaussian, Inc.),
 the Gaussian 86(TM) system (copyright 1986, Carnegie Mellon
 University), and the Gaussian 82(TM) system (copyright 1983,
 Carnegie Mellon University). Gaussian is a federally registered
 trademark of Gaussian, Inc.
  
 This software contains proprietary and confidential information,
 including trade secrets, belonging to Gaussian, Inc.
  
 This software is provided under written license and may be
 used, copied, transmitted, or stored only in accord with that
 written license.
  
 The following legend is applicable only to US Government
 contracts under FAR:
  
                    RESTRICTED RIGHTS LEGEND
  
 Use, reproduction and disclosure by the US Government is
 subject to restrictions as set forth in subparagraphs (a)
 and (c) of the Commercial Computer Software - Restricted
 Rights clause in FAR 52.227-19.
  
 Gaussian, Inc.
 340 Quinnipiac St., Bldg. 40, Wallingford CT 06492
  
  
 ---------------------------------------------------------------
 Warning -- This program may not be used in any manner that
 competes with the business of Gaussian, Inc. or will provide
 assistance to any competitor of Gaussian, Inc.  The licensee
 of this program is prohibited from giving any competitor of
 Gaussian, Inc. access to this program.  By using this program,
 the user acknowledges that Gaussian, Inc. is engaged in the
 business of creating and licensing software in the field of
 computational chemistry and represents and warrants to the
 licensee that it is not a competitor of Gaussian, Inc. and that
 it will not use this program in any manner prohibited above.
 ---------------------------------------------------------------
  

 Cite this work as:
 Gaussian 16, Revision C.01,
 M. J. Frisch, G. W. Trucks, H. B. Schlegel, G. E. Scuseria, 
 M. A. Robb, J. R. Cheeseman, G. Scalmani, V. Barone, 
 G. A. Petersson, H. Nakatsuji, X. Li, M. Caricato, A. V. Marenich, 
 J. Bloino, B. G. Janesko, R. Gomperts, B. Mennucci, H. P. Hratchian, 
 J. V. Ortiz, A. F. Izmaylov, J. L. Sonnenberg, D. Williams-Young, 
 F. Ding, F. Lipparini, F. Egidi, J. Goings, B. Peng, A. Petrone, 
 T. Henderson, D. Ranasinghe, V. G. Zakrzewski, J. Gao, N. Rega, 
 G. Zheng, W. Liang, M. Hada, M. Ehara, K. Toyota, R. Fukuda, 
 J. Hasegawa, M. Ishida, T. Nakajima, Y. Honda, O. Kitao, H. Nakai, 
 T. Vreven, K. Throssell, J. A. Montgomery, Jr., J. E. Peralta, 
 F. Ogliaro, M. J. Bearpark, J. J. Heyd, E. N. Brothers, K. N. Kudin, 
 V. N. Staroverov, T. A. Keith, R. Kobayashi, J. Normand, 
 K. Raghavachari, A. P. Rendell, J. C. Burant, S. S. Iyengar, 
 J. Tomasi, M. Cossi, J. M. Millam, M. Klene, C. Adamo, R. Cammi, 
 J. W. Ochterski, R. L. Martin, K. Morokuma, O. Farkas, 
 J. B. Foresman, and D. J. Fox, Gaussian, Inc., Wallingford CT, 2019.
 
 ******************************************
 Gaussian 16:  ES64L-G16RevC.01  3-Jul-2019
                25-Oct-2025 
 ******************************************
 %chk=PC-DBFX_OPT_WB97XD_6-311++GDP_G_251023.chk
 --------------------------------------------
 # opt wb97xd/6-311++g(d,p) geom=connectivity
 --------------------------------------------
 1/18=20,19=15,26=3,38=1,57=2/1,3;
 2/9=110,12=2,17=6,18=5,40=1/2;
 3/5=4,6=6,7=1111,11=2,25=1,30=1,71=1,74=-58/1,2,3;
 4//1;
 5/5=2,38=5/2;
 6/7=2,8=2,9=2,10=2,28=1/1;
 7//1,2,3,16;
 1/18=20,19=15,26=3/3(2);
 2/9=110/2;
 99//99;
 2/9=110/2;
 3/5=4,6=6,7=1111,11=2,25=1,30=1,71=1,74=-58/1,2,3;
 4/5=5,16=3,69=1/1;
 5/5=2,38=5/2;
 7//1,2,3,16;
 1/18=20,19=15,26=3/3(-5);
 2/9=110/2;
 6/7=2,8=2,9=2,10=2,19=2,28=1/1;
 99/9=1/99;
 -------------------
 Title Card Required
 -------------------
 Symbolic Z-matrix:
 Charge =  0 Multiplicity = 1
 C                    -3.76873   0.81238  -3.0227 
 C                    -3.89845   0.83171  -1.61691 
 C                    -2.82592   0.46779  -0.89026 
 C                    -1.62068   0.13458  -1.46786 
 C                    -1.47329   0.00465  -2.79149 
 C                    -2.54495   0.39741  -3.60792 
 H                    -4.58804   1.10912  -3.64273 
 H                    -4.81303   1.12154  -1.14662 
 H                    -0.56179  -0.36926  -3.20993 
 C                    -2.68363   0.3094    0.62925 
 C                    -1.38853  -0.10331   0.91155 
 C                    -3.61399   0.4906    1.58296 
 C                    -1.01877  -0.48331   2.15423 
 C                    -3.2636    0.16624   2.90587 
 H                    -4.58756   0.86095   1.33955 
 C                    -1.97101  -0.34082   3.19335 
 H                    -0.04074  -0.8697    2.34941 
 H                    -3.97469   0.30018   3.69426 
 C                    -0.54039  -0.03029  -0.38823 
 C                     0.33328   1.2267   -0.39278 
 C                     1.63602   1.17117   0.03279 
 C                    -0.22137   2.43876  -0.86296 
 C                     2.43194   2.33293  -0.00679 
 C                     0.57231   3.52191  -0.91907 
 H                    -1.24488   2.49083  -1.17306 
 C                     1.86308   3.46367  -0.46622 
 H                     3.45039   2.31561   0.3209 
 C                     0.38317  -1.24352  -0.60521 
 C                    -0.11042  -2.3835   -1.27921 
 C                     1.68244  -1.2074   -0.15511 
 C                     0.73037  -3.41594  -1.48856 
 H                    -1.12514  -2.42087  -1.62164 
 C                     2.5239   -2.31933  -0.35538 
 C                     2.01037  -3.38358  -0.99606 
 H                     3.53433  -2.31722  -0.00522 
 O                     2.20618  -0.05168   0.5215 
 O                    -2.36073   0.38881  -5.02505 
 O                    -1.63847  -0.70007   4.54163 
 C                    -3.57385   0.19374  -5.74933 
 H                    -3.98478  -0.76841  -5.52121 
 H                    -4.28302   0.95115  -5.48687 
 C                    -3.24481   0.28724  -7.24761 
 H                    -2.83014   1.25229  -7.45503 
 H                    -2.53323  -0.47048  -7.5011 
 C                    -2.3998    0.11113   5.44996 
 H                    -3.44332  -0.02759   5.25851 
 H                    -2.14309   1.13965   5.30524 
 C                    -2.09457  -0.29224   6.90831 
 H                    -1.05284  -0.15228   7.10972 
 H                    -2.35143  -1.32024   7.05268 
 O                    -4.42388   0.10083  -8.02941 
 O                    -2.86781   0.52141   7.79875 
 C                    -4.06205   0.22999  -9.40649 
 C                    -2.63948   0.12424   9.15656 
 H                    -1.60186   0.22986   9.39347 
 H                    -3.21928   0.74389   9.80976 
 H                    -2.93209  -0.89754   9.28339 
 C                    -4.77333  -0.60878  -10.48432 
 H                    -4.09671  -0.79232  -11.29264 
 H                    -5.08713  -1.54028  -10.0632 
 H                    -5.62604  -0.07403  -10.84529 
 O                    -3.15373   1.03437  -9.7403 
 C                     1.39267   5.63345  -1.07118 
 C                     2.41249   4.85583  -0.58291 
 C                     3.66827   5.35826  -0.27162 
 C                     3.86242   6.74717  -0.40545 
 C                     2.79358   7.57856  -0.83601 
 C                     1.54209   7.01703  -1.17212 
 H                     4.45566   4.71595   0.06158 
 H                     4.81609   7.17397  -0.18225 
 H                     2.93572   8.6375   -0.90831 
 H                     0.7328    7.63757  -1.49973 
 C                     3.10724  -7.35793  -1.96795 
 C                     4.13067  -6.57262  -1.37568 
 C                     3.88175  -5.22837  -1.03256 
 C                     2.61607  -4.72226  -1.30792 
 C                     1.64034  -5.44645  -1.94324 
 C                     1.84623  -6.79029  -2.2536 
 H                     3.29282  -8.38602  -2.2024 
 H                     5.09331  -7.00279  -1.18669 
 H                     4.6346   -4.62231  -0.57404 
 H                     1.06914  -7.37453  -2.70233 
 O                     0.22082   4.8414   -1.44061 
 O                     0.44787  -4.64811  -2.22263 
 

 GradGradGradGradGradGradGradGradGradGradGradGradGradGradGradGradGradGrad
 Berny optimization.
 Initialization pass.
                           ----------------------------
                           !    Initial Parameters    !
                           ! (Angstroms and Degrees)  !
 --------------------------                            --------------------------
 ! Name  Definition              Value          Derivative Info.                !
 --------------------------------------------------------------------------------
 ! R1    R(1,2)                  1.4119         estimate D2E/DX2                !
 ! R2    R(1,6)                  1.4186         estimate D2E/DX2                !
 ! R3    R(1,7)                  1.0695         estimate D2E/DX2                !
 ! R4    R(2,3)                  1.3457         estimate D2E/DX2                !
 ! R5    R(2,8)                  1.0685         estimate D2E/DX2                !
 ! R6    R(3,4)                  1.3774         estimate D2E/DX2                !
 ! R7    R(3,10)                 1.5344         estimate D2E/DX2                !
 ! R8    R(4,5)                  1.3381         estimate D2E/DX2                !
 ! R9    R(4,19)                 1.5362         estimate D2E/DX2                !
 ! R10   R(5,6)                  1.4033         estimate D2E/DX2                !
 ! R11   R(5,9)                  1.0704         estimate D2E/DX2                !
 ! R12   R(6,37)                 1.4291         estimate D2E/DX2                !
 ! R13   R(10,11)                1.3883         estimate D2E/DX2                !
 ! R14   R(10,12)                1.3446         estimate D2E/DX2                !
 ! R15   R(11,13)                1.3511         estimate D2E/DX2                !
 ! R16   R(11,19)                1.5537         estimate D2E/DX2                !
 ! R17   R(12,14)                1.4064         estimate D2E/DX2                !
 ! R18   R(12,15)                1.0697         estimate D2E/DX2                !
 ! R19   R(13,16)                1.4166         estimate D2E/DX2                !
 ! R20   R(13,17)                1.0695         estimate D2E/DX2                !
 ! R21   R(14,16)                1.4179         estimate D2E/DX2                !
 ! R22   R(14,18)                1.0701         estimate D2E/DX2                !
 ! R23   R(16,38)                1.4344         estimate D2E/DX2                !
 ! R24   R(19,20)                1.5308         estimate D2E/DX2                !
 ! R25   R(19,28)                1.5401         estimate D2E/DX2                !
 ! R26   R(20,21)                1.3716         estimate D2E/DX2                !
 ! R27   R(20,22)                1.4134         estimate D2E/DX2                !
 ! R28   R(21,23)                1.4088         estimate D2E/DX2                !
 ! R29   R(21,36)                1.435          estimate D2E/DX2                !
 ! R30   R(22,24)                1.344          estimate D2E/DX2                !
 ! R31   R(22,25)                1.0707         estimate D2E/DX2                !
 ! R32   R(23,26)                1.3466         estimate D2E/DX2                !
 ! R33   R(23,27)                1.07           estimate D2E/DX2                !
 ! R34   R(24,26)                1.3691         estimate D2E/DX2                !
 ! R35   R(24,83)                1.4617         estimate D2E/DX2                !
 ! R36   R(26,64)                1.5012         estimate D2E/DX2                !
 ! R37   R(28,29)                1.4133         estimate D2E/DX2                !
 ! R38   R(28,30)                1.3755         estimate D2E/DX2                !
 ! R39   R(29,31)                1.3478         estimate D2E/DX2                !
 ! R40   R(29,32)                1.0716         estimate D2E/DX2                !
 ! R41   R(30,33)                1.4087         estimate D2E/DX2                !
 ! R42   R(30,36)                1.438          estimate D2E/DX2                !
 ! R43   R(31,34)                1.3719         estimate D2E/DX2                !
 ! R44   R(31,84)                1.4618         estimate D2E/DX2                !
 ! R45   R(33,34)                1.3442         estimate D2E/DX2                !
 ! R46   R(33,35)                1.0694         estimate D2E/DX2                !
 ! R47   R(34,76)                1.5021         estimate D2E/DX2                !
 ! R48   R(37,39)                1.4263         estimate D2E/DX2                !
 ! R49   R(38,45)                1.4362         estimate D2E/DX2                !
 ! R50   R(39,40)                1.0708         estimate D2E/DX2                !
 ! R51   R(39,41)                1.0703         estimate D2E/DX2                !
 ! R52   R(39,42)                1.5368         estimate D2E/DX2                !
 ! R53   R(42,43)                1.0707         estimate D2E/DX2                !
 ! R54   R(42,44)                1.0699         estimate D2E/DX2                !
 ! R55   R(42,51)                1.4269         estimate D2E/DX2                !
 ! R56   R(45,46)                1.07           estimate D2E/DX2                !
 ! R57   R(45,47)                1.0699         estimate D2E/DX2                !
 ! R58   R(45,48)                1.5436         estimate D2E/DX2                !
 ! R59   R(48,49)                1.0702         estimate D2E/DX2                !
 ! R60   R(48,50)                1.0694         estimate D2E/DX2                !
 ! R61   R(48,52)                1.4328         estimate D2E/DX2                !
 ! R62   R(51,53)                1.4297         estimate D2E/DX2                !
 ! R63   R(52,54)                1.433          estimate D2E/DX2                !
 ! R64   R(53,58)                1.5399         estimate D2E/DX2                !
 ! R65   R(53,62)                1.2584         estimate D2E/DX2                !
 ! R66   R(54,55)                1.0695         estimate D2E/DX2                !
 ! R67   R(54,56)                1.0709         estimate D2E/DX2                !
 ! R68   R(54,57)                1.0704         estimate D2E/DX2                !
 ! R69   R(58,59)                1.07           estimate D2E/DX2                !
 ! R70   R(58,60)                1.0693         estimate D2E/DX2                !
 ! R71   R(58,61)                1.0693         estimate D2E/DX2                !
 ! R72   R(63,64)                1.3723         estimate D2E/DX2                !
 ! R73   R(63,68)                1.3953         estimate D2E/DX2                !
 ! R74   R(63,83)                1.4619         estimate D2E/DX2                !
 ! R75   R(64,65)                1.3879         estimate D2E/DX2                !
 ! R76   R(65,66)                1.4088         estimate D2E/DX2                !
 ! R77   R(65,69)                1.0694         estimate D2E/DX2                !
 ! R78   R(66,67)                1.4209         estimate D2E/DX2                !
 ! R79   R(66,70)                1.0684         estimate D2E/DX2                !
 ! R80   R(67,68)                1.4123         estimate D2E/DX2                !
 ! R81   R(67,71)                1.0709         estimate D2E/DX2                !
 ! R82   R(68,72)                1.0711         estimate D2E/DX2                !
 ! R83   R(73,74)                1.4195         estimate D2E/DX2                !
 ! R84   R(73,78)                1.4121         estimate D2E/DX2                !
 ! R85   R(73,79)                1.0707         estimate D2E/DX2                !
 ! R86   R(74,75)                1.4095         estimate D2E/DX2                !
 ! R87   R(74,80)                1.0712         estimate D2E/DX2                !
 ! R88   R(75,76)                1.3906         estimate D2E/DX2                !
 ! R89   R(75,81)                1.0697         estimate D2E/DX2                !
 ! R90   R(76,77)                1.3712         estimate D2E/DX2                !
 ! R91   R(77,78)                1.3945         estimate D2E/DX2                !
 ! R92   R(77,84)                1.462          estimate D2E/DX2                !
 ! R93   R(78,82)                1.0708         estimate D2E/DX2                !
 ! A1    A(2,1,6)              119.6056         estimate D2E/DX2                !
 ! A2    A(2,1,7)              120.2033         estimate D2E/DX2                !
 ! A3    A(6,1,7)              120.1911         estimate D2E/DX2                !
 ! A4    A(1,2,3)              117.4343         estimate D2E/DX2                !
 ! A5    A(1,2,8)              121.3728         estimate D2E/DX2                !
 ! A6    A(3,2,8)              121.1927         estimate D2E/DX2                !
 ! A7    A(2,3,4)              122.4382         estimate D2E/DX2                !
 ! A8    A(2,3,10)             129.539          estimate D2E/DX2                !
 ! A9    A(4,3,10)             108.009          estimate D2E/DX2                !
 ! A10   A(3,4,5)              122.3208         estimate D2E/DX2                !
 ! A11   A(3,4,19)             110.2785         estimate D2E/DX2                !
 ! A12   A(5,4,19)             127.3955         estimate D2E/DX2                !
 ! A13   A(4,5,6)              117.6582         estimate D2E/DX2                !
 ! A14   A(4,5,9)              120.9571         estimate D2E/DX2                !
 ! A15   A(6,5,9)              121.3754         estimate D2E/DX2                !
 ! A16   A(1,6,5)              120.0442         estimate D2E/DX2                !
 ! A17   A(1,6,37)             121.4705         estimate D2E/DX2                !
 ! A18   A(5,6,37)             118.4767         estimate D2E/DX2                !
 ! A19   A(3,10,11)            108.5768         estimate D2E/DX2                !
 ! A20   A(3,10,12)            128.6341         estimate D2E/DX2                !
 ! A21   A(11,10,12)           122.7733         estimate D2E/DX2                !
 ! A22   A(10,11,13)           121.7328         estimate D2E/DX2                !
 ! A23   A(10,11,19)           108.9747         estimate D2E/DX2                !
 ! A24   A(13,11,19)           129.2916         estimate D2E/DX2                !
 ! A25   A(10,12,14)           117.6261         estimate D2E/DX2                !
 ! A26   A(10,12,15)           120.9977         estimate D2E/DX2                !
 ! A27   A(14,12,15)           121.3744         estimate D2E/DX2                !
 ! A28   A(11,13,16)           117.5429         estimate D2E/DX2                !
 ! A29   A(11,13,17)           121.314          estimate D2E/DX2                !
 ! A30   A(16,13,17)           121.141          estimate D2E/DX2                !
 ! A31   A(12,14,16)           120.0187         estimate D2E/DX2                !
 ! A32   A(12,14,18)           119.9053         estimate D2E/DX2                !
 ! A33   A(16,14,18)           120.0758         estimate D2E/DX2                !
 ! A34   A(13,16,14)           120.0016         estimate D2E/DX2                !
 ! A35   A(13,16,38)           120.5605         estimate D2E/DX2                !
 ! A36   A(14,16,38)           119.4373         estimate D2E/DX2                !
 ! A37   A(4,19,11)            102.0699         estimate D2E/DX2                !
 ! A38   A(4,19,20)            108.1284         estimate D2E/DX2                !
 ! A39   A(4,19,28)            114.0313         estimate D2E/DX2                !
 ! A40   A(11,19,20)           110.6478         estimate D2E/DX2                !
 ! A41   A(11,19,28)           114.0901         estimate D2E/DX2                !
 ! A42   A(20,19,28)           107.7087         estimate D2E/DX2                !
 ! A43   A(19,20,21)           120.5246         estimate D2E/DX2                !
 ! A44   A(19,20,22)           118.7618         estimate D2E/DX2                !
 ! A45   A(21,20,22)           120.7062         estimate D2E/DX2                !
 ! A46   A(20,21,23)           119.636          estimate D2E/DX2                !
 ! A47   A(20,21,36)           121.1669         estimate D2E/DX2                !
 ! A48   A(23,21,36)           119.1971         estimate D2E/DX2                !
 ! A49   A(20,22,24)           118.2459         estimate D2E/DX2                !
 ! A50   A(20,22,25)           120.8741         estimate D2E/DX2                !
 ! A51   A(24,22,25)           120.8784         estimate D2E/DX2                !
 ! A52   A(21,23,26)           117.6058         estimate D2E/DX2                !
 ! A53   A(21,23,27)           121.0498         estimate D2E/DX2                !
 ! A54   A(26,23,27)           121.3439         estimate D2E/DX2                !
 ! A55   A(22,24,26)           120.5737         estimate D2E/DX2                !
 ! A56   A(22,24,83)           126.8985         estimate D2E/DX2                !
 ! A57   A(26,24,83)           112.5269         estimate D2E/DX2                !
 ! A58   A(23,26,24)           123.1503         estimate D2E/DX2                !
 ! A59   A(23,26,64)           130.59           estimate D2E/DX2                !
 ! A60   A(24,26,64)           106.2526         estimate D2E/DX2                !
 ! A61   A(19,28,29)           119.5486         estimate D2E/DX2                !
 ! A62   A(19,28,30)           119.9768         estimate D2E/DX2                !
 ! A63   A(29,28,30)           120.4718         estimate D2E/DX2                !
 ! A64   A(28,29,31)           118.2986         estimate D2E/DX2                !
 ! A65   A(28,29,32)           120.7457         estimate D2E/DX2                !
 ! A66   A(31,29,32)           120.9537         estimate D2E/DX2                !
 ! A67   A(28,30,33)           119.7997         estimate D2E/DX2                !
 ! A68   A(28,30,36)           121.2721         estimate D2E/DX2                !
 ! A69   A(33,30,36)           118.9282         estimate D2E/DX2                !
 ! A70   A(29,31,34)           120.5441         estimate D2E/DX2                !
 ! A71   A(29,31,84)           127.0925         estimate D2E/DX2                !
 ! A72   A(34,31,84)           112.363          estimate D2E/DX2                !
 ! A73   A(30,33,34)           117.6775         estimate D2E/DX2                !
 ! A74   A(30,33,35)           121.0826         estimate D2E/DX2                !
 ! A75   A(34,33,35)           121.2392         estimate D2E/DX2                !
 ! A76   A(31,34,33)           123.1098         estimate D2E/DX2                !
 ! A77   A(31,34,76)           106.3011         estimate D2E/DX2                !
 ! A78   A(33,34,76)           130.5817         estimate D2E/DX2                !
 ! A79   A(21,36,30)           112.3292         estimate D2E/DX2                !
 ! A80   A(6,37,39)            113.2503         estimate D2E/DX2                !
 ! A81   A(16,38,45)           109.276          estimate D2E/DX2                !
 ! A82   A(37,39,40)           109.9446         estimate D2E/DX2                !
 ! A83   A(37,39,41)           110.0146         estimate D2E/DX2                !
 ! A84   A(37,39,42)           107.7372         estimate D2E/DX2                !
 ! A85   A(40,39,41)           109.2293         estimate D2E/DX2                !
 ! A86   A(40,39,42)           110.1521         estimate D2E/DX2                !
 ! A87   A(41,39,42)           109.7481         estimate D2E/DX2                !
 ! A88   A(39,42,43)           109.0645         estimate D2E/DX2                !
 ! A89   A(39,42,44)           109.286          estimate D2E/DX2                !
 ! A90   A(39,42,51)           110.4436         estimate D2E/DX2                !
 ! A91   A(43,42,44)           109.5636         estimate D2E/DX2                !
 ! A92   A(43,42,51)           109.3684         estimate D2E/DX2                !
 ! A93   A(44,42,51)           109.1005         estimate D2E/DX2                !
 ! A94   A(38,45,46)           109.3048         estimate D2E/DX2                !
 ! A95   A(38,45,47)           109.2828         estimate D2E/DX2                !
 ! A96   A(38,45,48)           110.1879         estimate D2E/DX2                !
 ! A97   A(46,45,47)           109.5387         estimate D2E/DX2                !
 ! A98   A(46,45,48)           109.1488         estimate D2E/DX2                !
 ! A99   A(47,45,48)           109.3638         estimate D2E/DX2                !
 ! A100  A(45,48,49)           109.6401         estimate D2E/DX2                !
 ! A101  A(45,48,50)           109.3455         estimate D2E/DX2                !
 ! A102  A(45,48,52)           109.3931         estimate D2E/DX2                !
 ! A103  A(49,48,50)           109.5183         estimate D2E/DX2                !
 ! A104  A(49,48,52)           109.5164         estimate D2E/DX2                !
 ! A105  A(50,48,52)           109.4134         estimate D2E/DX2                !
 ! A106  A(42,51,53)           107.8668         estimate D2E/DX2                !
 ! A107  A(48,52,54)           110.2115         estimate D2E/DX2                !
 ! A108  A(51,53,58)           120.5365         estimate D2E/DX2                !
 ! A109  A(51,53,62)           119.7324         estimate D2E/DX2                !
 ! A110  A(58,53,62)           119.731          estimate D2E/DX2                !
 ! A111  A(52,54,55)           109.7            estimate D2E/DX2                !
 ! A112  A(52,54,56)           109.3484         estimate D2E/DX2                !
 ! A113  A(52,54,57)           109.4679         estimate D2E/DX2                !
 ! A114  A(55,54,56)           109.4512         estimate D2E/DX2                !
 ! A115  A(55,54,57)           109.4647         estimate D2E/DX2                !
 ! A116  A(56,54,57)           109.3946         estimate D2E/DX2                !
 ! A117  A(53,58,59)           109.2756         estimate D2E/DX2                !
 ! A118  A(53,58,60)           109.5354         estimate D2E/DX2                !
 ! A119  A(53,58,61)           109.4048         estimate D2E/DX2                !
 ! A120  A(59,58,60)           109.4905         estimate D2E/DX2                !
 ! A121  A(59,58,61)           109.5747         estimate D2E/DX2                !
 ! A122  A(60,58,61)           109.546          estimate D2E/DX2                !
 ! A123  A(64,63,68)           120.5356         estimate D2E/DX2                !
 ! A124  A(64,63,83)           112.2479         estimate D2E/DX2                !
 ! A125  A(68,63,83)           127.2165         estimate D2E/DX2                !
 ! A126  A(26,64,63)           106.3309         estimate D2E/DX2                !
 ! A127  A(26,64,65)           130.4974         estimate D2E/DX2                !
 ! A128  A(63,64,65)           123.1666         estimate D2E/DX2                !
 ! A129  A(64,65,66)           117.4052         estimate D2E/DX2                !
 ! A130  A(64,65,69)           121.2423         estimate D2E/DX2                !
 ! A131  A(66,65,69)           121.3518         estimate D2E/DX2                !
 ! A132  A(65,66,67)           120.1304         estimate D2E/DX2                !
 ! A133  A(65,66,70)           119.8024         estimate D2E/DX2                !
 ! A134  A(67,66,70)           120.0672         estimate D2E/DX2                !
 ! A135  A(66,67,68)           120.4014         estimate D2E/DX2                !
 ! A136  A(66,67,71)           119.9472         estimate D2E/DX2                !
 ! A137  A(68,67,71)           119.6514         estimate D2E/DX2                !
 ! A138  A(63,68,67)           118.1611         estimate D2E/DX2                !
 ! A139  A(63,68,72)           121.043          estimate D2E/DX2                !
 ! A140  A(67,68,72)           120.7953         estimate D2E/DX2                !
 ! A141  A(74,73,78)           120.3891         estimate D2E/DX2                !
 ! A142  A(74,73,79)           119.843          estimate D2E/DX2                !
 ! A143  A(78,73,79)           119.7676         estimate D2E/DX2                !
 ! A144  A(73,74,75)           120.1237         estimate D2E/DX2                !
 ! A145  A(73,74,80)           119.9591         estimate D2E/DX2                !
 ! A146  A(75,74,80)           119.917          estimate D2E/DX2                !
 ! A147  A(74,75,76)           117.3626         estimate D2E/DX2                !
 ! A148  A(74,75,81)           121.3576         estimate D2E/DX2                !
 ! A149  A(76,75,81)           121.2791         estimate D2E/DX2                !
 ! A150  A(34,76,75)           130.5605         estimate D2E/DX2                !
 ! A151  A(34,76,77)           106.2571         estimate D2E/DX2                !
 ! A152  A(75,76,77)           123.1739         estimate D2E/DX2                !
 ! A153  A(76,77,78)           120.4654         estimate D2E/DX2                !
 ! A154  A(76,77,84)           112.3688         estimate D2E/DX2                !
 ! A155  A(78,77,84)           127.1656         estimate D2E/DX2                !
 ! A156  A(73,78,77)           118.3083         estimate D2E/DX2                !
 ! A157  A(73,78,82)           120.8987         estimate D2E/DX2                !
 ! A158  A(77,78,82)           120.7921         estimate D2E/DX2                !
 ! A159  A(24,83,63)           101.8976         estimate D2E/DX2                !
 ! A160  A(31,84,77)           101.9281         estimate D2E/DX2                !
 ! D1    D(6,1,2,3)              1.0197         estimate D2E/DX2                !
 ! D2    D(6,1,2,8)           -178.832          estimate D2E/DX2                !
 ! D3    D(7,1,2,3)           -178.9601         estimate D2E/DX2                !
 ! D4    D(7,1,2,8)              1.1881         estimate D2E/DX2                !
 ! D5    D(2,1,6,5)              0.222          estimate D2E/DX2                !
 ! D6    D(2,1,6,37)          -178.6912         estimate D2E/DX2                !
 ! D7    D(7,1,6,5)           -179.7981         estimate D2E/DX2                !
 ! D8    D(7,1,6,37)             1.2887         estimate D2E/DX2                !
 ! D9    D(1,2,3,4)              2.4685         estimate D2E/DX2                !
 ! D10   D(1,2,3,10)          -176.0136         estimate D2E/DX2                !
 ! D11   D(8,2,3,4)           -177.6795         estimate D2E/DX2                !
 ! D12   D(8,2,3,10)             3.8385         estimate D2E/DX2                !
 ! D13   D(2,3,4,5)             -7.6387         estimate D2E/DX2                !
 ! D14   D(2,3,4,19)           171.5859         estimate D2E/DX2                !
 ! D15   D(10,3,4,5)           171.1304         estimate D2E/DX2                !
 ! D16   D(10,3,4,19)           -9.645          estimate D2E/DX2                !
 ! D17   D(2,3,10,11)          179.194          estimate D2E/DX2                !
 ! D18   D(2,3,10,12)            0.6233         estimate D2E/DX2                !
 ! D19   D(4,3,10,11)            0.541          estimate D2E/DX2                !
 ! D20   D(4,3,10,12)         -178.0297         estimate D2E/DX2                !
 ! D21   D(3,4,5,6)              8.5746         estimate D2E/DX2                !
 ! D22   D(3,4,5,9)           -172.5219         estimate D2E/DX2                !
 ! D23   D(19,4,5,6)          -170.5099         estimate D2E/DX2                !
 ! D24   D(19,4,5,9)             8.3936         estimate D2E/DX2                !
 ! D25   D(3,4,19,11)           14.1276         estimate D2E/DX2                !
 ! D26   D(3,4,19,20)         -102.58           estimate D2E/DX2                !
 ! D27   D(3,4,19,28)          137.6564         estimate D2E/DX2                !
 ! D28   D(5,4,19,11)         -166.6972         estimate D2E/DX2                !
 ! D29   D(5,4,19,20)           76.5952         estimate D2E/DX2                !
 ! D30   D(5,4,19,28)          -43.1684         estimate D2E/DX2                !
 ! D31   D(4,5,6,1)             -4.917          estimate D2E/DX2                !
 ! D32   D(4,5,6,37)           174.0284         estimate D2E/DX2                !
 ! D33   D(9,5,6,1)            176.1843         estimate D2E/DX2                !
 ! D34   D(9,5,6,37)            -4.8702         estimate D2E/DX2                !
 ! D35   D(1,6,37,39)          -28.2456         estimate D2E/DX2                !
 ! D36   D(5,6,37,39)          152.8247         estimate D2E/DX2                !
 ! D37   D(3,10,11,13)        -171.692          estimate D2E/DX2                !
 ! D38   D(3,10,11,19)           8.6157         estimate D2E/DX2                !
 ! D39   D(12,10,11,13)          6.9802         estimate D2E/DX2                !
 ! D40   D(12,10,11,19)       -172.7121         estimate D2E/DX2                !
 ! D41   D(3,10,12,14)         174.5043         estimate D2E/DX2                !
 ! D42   D(3,10,12,15)          -5.0119         estimate D2E/DX2                !
 ! D43   D(11,10,12,14)         -3.8843         estimate D2E/DX2                !
 ! D44   D(11,10,12,15)        176.5994         estimate D2E/DX2                !
 ! D45   D(10,11,13,16)         -5.1835         estimate D2E/DX2                !
 ! D46   D(10,11,13,17)        175.3339         estimate D2E/DX2                !
 ! D47   D(19,11,13,16)        174.4405         estimate D2E/DX2                !
 ! D48   D(19,11,13,17)         -5.0421         estimate D2E/DX2                !
 ! D49   D(10,11,19,4)         -13.5946         estimate D2E/DX2                !
 ! D50   D(10,11,19,20)        101.2779         estimate D2E/DX2                !
 ! D51   D(10,11,19,28)       -137.0838         estimate D2E/DX2                !
 ! D52   D(13,11,19,4)         166.7435         estimate D2E/DX2                !
 ! D53   D(13,11,19,20)        -78.384          estimate D2E/DX2                !
 ! D54   D(13,11,19,28)         43.2543         estimate D2E/DX2                !
 ! D55   D(10,12,14,16)         -0.4263         estimate D2E/DX2                !
 ! D56   D(10,12,14,18)        179.7406         estimate D2E/DX2                !
 ! D57   D(15,12,14,16)        179.088          estimate D2E/DX2                !
 ! D58   D(15,12,14,18)         -0.7451         estimate D2E/DX2                !
 ! D59   D(11,13,16,14)          0.9156         estimate D2E/DX2                !
 ! D60   D(11,13,16,38)       -178.8006         estimate D2E/DX2                !
 ! D61   D(17,13,16,14)       -179.6009         estimate D2E/DX2                !
 ! D62   D(17,13,16,38)          0.683          estimate D2E/DX2                !
 ! D63   D(12,14,16,13)          1.8832         estimate D2E/DX2                !
 ! D64   D(12,14,16,38)       -178.3974         estimate D2E/DX2                !
 ! D65   D(18,14,16,13)       -178.284          estimate D2E/DX2                !
 ! D66   D(18,14,16,38)          1.4354         estimate D2E/DX2                !
 ! D67   D(13,16,38,45)        150.7514         estimate D2E/DX2                !
 ! D68   D(14,16,38,45)        -28.9664         estimate D2E/DX2                !
 ! D69   D(4,19,20,21)        -153.4464         estimate D2E/DX2                !
 ! D70   D(4,19,20,22)          25.5739         estimate D2E/DX2                !
 ! D71   D(11,19,20,21)         95.5453         estimate D2E/DX2                !
 ! D72   D(11,19,20,22)        -85.4344         estimate D2E/DX2                !
 ! D73   D(28,19,20,21)        -29.7796         estimate D2E/DX2                !
 ! D74   D(28,19,20,22)        149.2406         estimate D2E/DX2                !
 ! D75   D(4,19,28,29)         -28.9836         estimate D2E/DX2                !
 ! D76   D(4,19,28,30)         150.408          estimate D2E/DX2                !
 ! D77   D(11,19,28,29)         87.7699         estimate D2E/DX2                !
 ! D78   D(11,19,28,30)        -92.8385         estimate D2E/DX2                !
 ! D79   D(20,19,28,29)       -148.9834         estimate D2E/DX2                !
 ! D80   D(20,19,28,30)         30.4083         estimate D2E/DX2                !
 ! D81   D(19,20,21,23)        178.6168         estimate D2E/DX2                !
 ! D82   D(19,20,21,36)         -1.4761         estimate D2E/DX2                !
 ! D83   D(22,20,21,23)         -0.3843         estimate D2E/DX2                !
 ! D84   D(22,20,21,36)        179.5228         estimate D2E/DX2                !
 ! D85   D(19,20,22,24)       -177.0503         estimate D2E/DX2                !
 ! D86   D(19,20,22,25)          2.5053         estimate D2E/DX2                !
 ! D87   D(21,20,22,24)          1.9681         estimate D2E/DX2                !
 ! D88   D(21,20,22,25)       -178.4762         estimate D2E/DX2                !
 ! D89   D(20,21,23,26)          0.1621         estimate D2E/DX2                !
 ! D90   D(20,21,23,27)        179.912          estimate D2E/DX2                !
 ! D91   D(36,21,23,26)       -179.7469         estimate D2E/DX2                !
 ! D92   D(36,21,23,27)          0.003          estimate D2E/DX2                !
 ! D93   D(20,21,36,30)         34.0231         estimate D2E/DX2                !
 ! D94   D(23,21,36,30)       -146.0693         estimate D2E/DX2                !
 ! D95   D(20,22,24,26)         -3.3297         estimate D2E/DX2                !
 ! D96   D(20,22,24,83)        176.2923         estimate D2E/DX2                !
 ! D97   D(25,22,24,26)        177.1147         estimate D2E/DX2                !
 ! D98   D(25,22,24,83)         -3.2633         estimate D2E/DX2                !
 ! D99   D(21,23,26,24)         -1.5769         estimate D2E/DX2                !
 ! D100  D(21,23,26,64)        177.3194         estimate D2E/DX2                !
 ! D101  D(27,23,26,24)        178.674          estimate D2E/DX2                !
 ! D102  D(27,23,26,64)         -2.4296         estimate D2E/DX2                !
 ! D103  D(22,24,26,23)          3.2701         estimate D2E/DX2                !
 ! D104  D(22,24,26,64)       -175.8569         estimate D2E/DX2                !
 ! D105  D(83,24,26,23)       -176.4026         estimate D2E/DX2                !
 ! D106  D(83,24,26,64)          4.4704         estimate D2E/DX2                !
 ! D107  D(22,24,83,63)        172.4368         estimate D2E/DX2                !
 ! D108  D(26,24,83,63)         -7.9156         estimate D2E/DX2                !
 ! D109  D(23,26,64,63)       -177.8562         estimate D2E/DX2                !
 ! D110  D(23,26,64,65)          1.3236         estimate D2E/DX2                !
 ! D111  D(24,26,64,63)          1.1813         estimate D2E/DX2                !
 ! D112  D(24,26,64,65)       -179.6389         estimate D2E/DX2                !
 ! D113  D(19,28,29,31)        178.1616         estimate D2E/DX2                !
 ! D114  D(19,28,29,32)         -1.3282         estimate D2E/DX2                !
 ! D115  D(30,28,29,31)         -1.227          estimate D2E/DX2                !
 ! D116  D(30,28,29,32)        179.2832         estimate D2E/DX2                !
 ! D117  D(19,28,30,33)        179.9894         estimate D2E/DX2                !
 ! D118  D(19,28,30,36)          0.0244         estimate D2E/DX2                !
 ! D119  D(29,28,30,33)         -0.6247         estimate D2E/DX2                !
 ! D120  D(29,28,30,36)        179.4104         estimate D2E/DX2                !
 ! D121  D(28,29,31,34)          3.3597         estimate D2E/DX2                !
 ! D122  D(28,29,31,84)       -176.3959         estimate D2E/DX2                !
 ! D123  D(32,29,31,34)       -177.1516         estimate D2E/DX2                !
 ! D124  D(32,29,31,84)          3.0928         estimate D2E/DX2                !
 ! D125  D(28,30,33,34)          0.3365         estimate D2E/DX2                !
 ! D126  D(28,30,33,35)       -179.3763         estimate D2E/DX2                !
 ! D127  D(36,30,33,34)       -179.6978         estimate D2E/DX2                !
 ! D128  D(36,30,33,35)          0.5894         estimate D2E/DX2                !
 ! D129  D(28,30,36,21)        -33.1965         estimate D2E/DX2                !
 ! D130  D(33,30,36,21)        146.8382         estimate D2E/DX2                !
 ! D131  D(29,31,34,33)         -3.8186         estimate D2E/DX2                !
 ! D132  D(29,31,34,76)        175.2887         estimate D2E/DX2                !
 ! D133  D(84,31,34,33)        175.9706         estimate D2E/DX2                !
 ! D134  D(84,31,34,76)         -4.9221         estimate D2E/DX2                !
 ! D135  D(29,31,84,77)       -171.9521         estimate D2E/DX2                !
 ! D136  D(34,31,84,77)          8.2755         estimate D2E/DX2                !
 ! D137  D(30,33,34,31)          1.857          estimate D2E/DX2                !
 ! D138  D(30,33,34,76)       -177.0148         estimate D2E/DX2                !
 ! D139  D(35,33,34,31)       -178.4307         estimate D2E/DX2                !
 ! D140  D(35,33,34,76)          2.6975         estimate D2E/DX2                !
 ! D141  D(31,34,76,75)       -179.7659         estimate D2E/DX2                !
 ! D142  D(31,34,76,77)         -0.8247         estimate D2E/DX2                !
 ! D143  D(33,34,76,75)         -0.7505         estimate D2E/DX2                !
 ! D144  D(33,34,76,77)        178.1908         estimate D2E/DX2                !
 ! D145  D(6,37,39,40)         -63.1589         estimate D2E/DX2                !
 ! D146  D(6,37,39,41)          57.1767         estimate D2E/DX2                !
 ! D147  D(6,37,39,42)         176.7845         estimate D2E/DX2                !
 ! D148  D(16,38,45,46)         58.0859         estimate D2E/DX2                !
 ! D149  D(16,38,45,47)        -61.7806         estimate D2E/DX2                !
 ! D150  D(16,38,45,48)        178.0272         estimate D2E/DX2                !
 ! D151  D(37,39,42,43)        -59.7262         estimate D2E/DX2                !
 ! D152  D(37,39,42,44)         60.0278         estimate D2E/DX2                !
 ! D153  D(37,39,42,51)       -179.9443         estimate D2E/DX2                !
 ! D154  D(40,39,42,43)       -179.6516         estimate D2E/DX2                !
 ! D155  D(40,39,42,44)        -59.8975         estimate D2E/DX2                !
 ! D156  D(40,39,42,51)         60.1303         estimate D2E/DX2                !
 ! D157  D(41,39,42,43)         60.0506         estimate D2E/DX2                !
 ! D158  D(41,39,42,44)        179.8046         estimate D2E/DX2                !
 ! D159  D(41,39,42,51)        -60.1675         estimate D2E/DX2                !
 ! D160  D(39,42,51,53)        178.636          estimate D2E/DX2                !
 ! D161  D(43,42,51,53)         58.6004         estimate D2E/DX2                !
 ! D162  D(44,42,51,53)        -61.2247         estimate D2E/DX2                !
 ! D163  D(38,45,48,49)         60.2171         estimate D2E/DX2                !
 ! D164  D(38,45,48,50)        -59.8669         estimate D2E/DX2                !
 ! D165  D(38,45,48,52)       -179.6719         estimate D2E/DX2                !
 ! D166  D(46,45,48,49)       -179.7473         estimate D2E/DX2                !
 ! D167  D(46,45,48,50)         60.1687         estimate D2E/DX2                !
 ! D168  D(46,45,48,52)        -59.6363         estimate D2E/DX2                !
 ! D169  D(47,45,48,49)        -59.9262         estimate D2E/DX2                !
 ! D170  D(47,45,48,50)        179.9898         estimate D2E/DX2                !
 ! D171  D(47,45,48,52)         60.1848         estimate D2E/DX2                !
 ! D172  D(45,48,52,54)        177.6184         estimate D2E/DX2                !
 ! D173  D(49,48,52,54)        -62.1949         estimate D2E/DX2                !
 ! D174  D(50,48,52,54)         57.8551         estimate D2E/DX2                !
 ! D175  D(42,51,53,58)        146.1033         estimate D2E/DX2                !
 ! D176  D(42,51,53,62)        -33.8034         estimate D2E/DX2                !
 ! D177  D(48,52,54,55)         59.6598         estimate D2E/DX2                !
 ! D178  D(48,52,54,56)        179.6999         estimate D2E/DX2                !
 ! D179  D(48,52,54,57)        -60.4708         estimate D2E/DX2                !
 ! D180  D(51,53,58,59)       -150.0535         estimate D2E/DX2                !
 ! D181  D(51,53,58,60)        -30.1104         estimate D2E/DX2                !
 ! D182  D(51,53,58,61)         89.9799         estimate D2E/DX2                !
 ! D183  D(62,53,58,59)         29.8533         estimate D2E/DX2                !
 ! D184  D(62,53,58,60)        149.7964         estimate D2E/DX2                !
 ! D185  D(62,53,58,61)        -90.1134         estimate D2E/DX2                !
 ! D186  D(68,63,64,26)        173.6843         estimate D2E/DX2                !
 ! D187  D(68,63,64,65)         -5.5706         estimate D2E/DX2                !
 ! D188  D(83,63,64,26)         -6.4146         estimate D2E/DX2                !
 ! D189  D(83,63,64,65)        174.3305         estimate D2E/DX2                !
 ! D190  D(64,63,68,67)          3.7732         estimate D2E/DX2                !
 ! D191  D(64,63,68,72)       -176.5138         estimate D2E/DX2                !
 ! D192  D(83,63,68,67)       -176.1118         estimate D2E/DX2                !
 ! D193  D(83,63,68,72)          3.6012         estimate D2E/DX2                !
 ! D194  D(64,63,83,24)          8.7016         estimate D2E/DX2                !
 ! D195  D(68,63,83,24)       -171.4054         estimate D2E/DX2                !
 ! D196  D(26,64,65,66)       -175.7014         estimate D2E/DX2                !
 ! D197  D(26,64,65,69)          3.9912         estimate D2E/DX2                !
 ! D198  D(63,64,65,66)          3.3583         estimate D2E/DX2                !
 ! D199  D(63,64,65,69)       -176.9491         estimate D2E/DX2                !
 ! D200  D(64,65,66,67)          0.4026         estimate D2E/DX2                !
 ! D201  D(64,65,66,70)       -179.5936         estimate D2E/DX2                !
 ! D202  D(69,65,66,67)       -179.2896         estimate D2E/DX2                !
 ! D203  D(69,65,66,70)          0.7142         estimate D2E/DX2                !
 ! D204  D(65,66,67,68)         -1.9382         estimate D2E/DX2                !
 ! D205  D(65,66,67,71)        178.1521         estimate D2E/DX2                !
 ! D206  D(70,66,67,68)        178.058          estimate D2E/DX2                !
 ! D207  D(70,66,67,71)         -1.8517         estimate D2E/DX2                !
 ! D208  D(66,67,68,63)         -0.1341         estimate D2E/DX2                !
 ! D209  D(66,67,68,72)       -179.8478         estimate D2E/DX2                !
 ! D210  D(71,67,68,63)        179.7758         estimate D2E/DX2                !
 ! D211  D(71,67,68,72)          0.0621         estimate D2E/DX2                !
 ! D212  D(78,73,74,75)          1.8391         estimate D2E/DX2                !
 ! D213  D(78,73,74,80)       -178.3172         estimate D2E/DX2                !
 ! D214  D(79,73,74,75)       -178.3438         estimate D2E/DX2                !
 ! D215  D(79,73,74,80)          1.4998         estimate D2E/DX2                !
 ! D216  D(74,73,78,77)          0.2091         estimate D2E/DX2                !
 ! D217  D(74,73,78,82)        179.858          estimate D2E/DX2                !
 ! D218  D(79,73,78,77)       -179.6081         estimate D2E/DX2                !
 ! D219  D(79,73,78,82)          0.0407         estimate D2E/DX2                !
 ! D220  D(73,74,75,76)         -0.4914         estimate D2E/DX2                !
 ! D221  D(73,74,75,81)        179.2123         estimate D2E/DX2                !
 ! D222  D(80,74,75,76)        179.6649         estimate D2E/DX2                !
 ! D223  D(80,74,75,81)         -0.6314         estimate D2E/DX2                !
 ! D224  D(74,75,76,34)        175.7396         estimate D2E/DX2                !
 ! D225  D(74,75,76,77)         -3.046          estimate D2E/DX2                !
 ! D226  D(81,75,76,34)         -3.9644         estimate D2E/DX2                !
 ! D227  D(81,75,76,77)        177.25           estimate D2E/DX2                !
 ! D228  D(34,76,77,78)       -173.8183         estimate D2E/DX2                !
 ! D229  D(34,76,77,84)          6.2871         estimate D2E/DX2                !
 ! D230  D(75,76,77,78)          5.2208         estimate D2E/DX2                !
 ! D231  D(75,76,77,84)       -174.6738         estimate D2E/DX2                !
 ! D232  D(76,77,78,73)         -3.635          estimate D2E/DX2                !
 ! D233  D(76,77,78,82)        176.7158         estimate D2E/DX2                !
 ! D234  D(84,77,78,73)        176.2427         estimate D2E/DX2                !
 ! D235  D(84,77,78,82)         -3.4066         estimate D2E/DX2                !
 ! D236  D(76,77,84,31)         -8.8452         estimate D2E/DX2                !
 ! D237  D(78,77,84,31)        171.2688         estimate D2E/DX2                !
 --------------------------------------------------------------------------------
 Trust Radius=3.00D-01 FncErr=1.00D-07 GrdErr=1.00D-06 EigMax=2.50D+02 EigMin=1.00D-04
 Number of steps in this run=    500 maximum allowed number of steps=    504.
 GradGradGradGradGradGradGradGradGradGradGradGradGradGradGradGradGradGrad

 Stoichiometry    C44H32O8
 Framework group  C1[X(C44H32O8)]
 Deg. of freedom   246
 Full point group                 C1      NOp   1
 Largest Abelian subgroup         C1      NOp   1
 Largest concise Abelian subgroup C1      NOp   1
                         Standard orientation:                         
 ---------------------------------------------------------------------
 Center     Atomic      Atomic             Coordinates (Angstroms)
 Number     Number       Type             X           Y           Z
 ---------------------------------------------------------------------
      1          6           0       -2.518530   -1.245174   -2.811626
      2          6           0       -1.154877   -1.192273   -3.173689
      3          6           0       -0.298444   -0.652860   -2.286933
      4          6           0       -0.701185   -0.209160   -1.046695
      5          6           0       -1.990311   -0.145190   -0.693622
      6          6           0       -2.932537   -0.718680   -1.561134
      7          1           0       -3.235107   -1.679856   -3.475961
      8          1           0       -0.814756   -1.563580   -4.116069
      9          1           0       -2.286854    0.312243    0.227547
     10          6           0        1.205960   -0.382995   -2.421794
     11          6           0        1.656902    0.204551   -1.247589
     12          6           0        2.010122   -0.618375   -3.473400
     13          6           0        2.907135    0.704801   -1.137887
     14          6           0        3.340764   -0.170593   -3.389958
     15          1           0        1.645400   -1.121527   -4.344070
     16          6           0        3.788621    0.510393   -2.229688
     17          1           0        3.223810    1.221369   -0.256524
     18          1           0        4.013512   -0.342255   -4.204264
     19          6           0        0.520108    0.156242   -0.189536
     20          6           0        0.759063   -0.980046    0.808001
     21          6           0        1.381601   -0.736260    2.005636
     22          6           0        0.307703   -2.278796    0.480392
     23          6           0        1.565802   -1.790129    2.922245
     24          6           0        0.468809   -3.256140    1.388767
     25          1           0       -0.156847   -2.477171   -0.463693
     26          6           0        1.116029   -3.009444    2.569776
     27          1           0        2.049704   -1.625693    3.862310
     28          6           0        0.354484    1.458945    0.615136
     29          6           0       -0.481454    2.484112    0.117434
     30          6           0        1.008151    1.613094    1.815536
     31          6           0       -0.637921    3.597970    0.860085
     32          1           0       -0.983769    2.373375   -0.822629
     33          6           0        0.854174    2.806318    2.548381
     34          6           0        0.054055    3.756094    2.034044
     35          1           0        1.360500    2.951919    3.478984
     36          8           0        1.852788    0.576256    2.344090
     37          8           0       -4.297742   -0.776139   -1.142588
     38          8           0        5.138487    0.992095   -2.171926
     39          6           0       -5.220421   -0.779357   -2.230221
     40          1           0       -5.141099    0.136583   -2.779222
     41          1           0       -5.013321   -1.601160   -2.883846
     42          6           0       -6.633858   -0.924981   -1.644699
     43          1           0       -6.691984   -1.842029   -1.095197
     44          1           0       -6.831772   -0.102010   -0.990257
     45          6           0        5.976993    0.151051   -2.979567
     46          1           0        5.610229    0.146564   -3.984697
     47          1           0        5.960494   -0.844567   -2.588199
     48          6           0        7.427119    0.679950   -2.972076
     49          1           0        7.803506    0.683609   -1.970230
     50          1           0        7.443297    1.675013   -3.363467
     51          8           0       -7.606947   -0.936144   -2.688309
     52          8           0        8.246329   -0.166128   -3.788080
     53          6           0       -8.892976   -1.105407   -2.087114
     54          6           0        9.585762    0.340749   -3.838230
     55          1           0        9.993573    0.380139   -2.850271
     56          1           0       10.186571   -0.304027   -4.446585
     57          1           0        9.579468    1.324111   -4.260980
     58          6           0      -10.136165   -0.430937   -2.696006
     59          1           0      -10.838122   -0.215703   -1.917664
     60          1           0       -9.848924    0.478841   -3.179013
     61          1           0      -10.583633   -1.089218   -3.410012
     62          8           0       -9.009668   -1.809856   -1.050951
     63          6           0        0.624510   -5.254538    2.455013
     64          6           0        1.203920   -4.326973    3.283893
     65          6           0        1.752517   -4.648712    4.517526
     66          6           0        1.766426   -6.008311    4.886287
     67          6           0        1.240366   -6.991594    4.005708
     68          6           0        0.663168   -6.612355    2.773824
     69          1           0        2.153349   -3.893794    5.160169
     70          1           0        2.173777   -6.298272    5.830447
     71          1           0        1.279273   -8.027053    4.276076
     72          1           0        0.262540   -7.348093    2.106337
     73          6           0       -1.053983    7.767184    2.825560
     74          6           0       -0.242872    7.154042    3.816040
     75          6           0        0.165595    5.813456    3.665436
     76          6           0       -0.266106    5.137519    2.529372
     77          6           0       -1.106898    5.693370    1.599731
     78          6           0       -1.489997    7.030251    1.702718
     79          1           0       -1.339648    8.793628    2.931331
     80          1           0        0.061641    7.711654    4.678475
     81          1           0        0.787068    5.335746    4.393389
     82          1           0       -2.103920    7.483950    0.951838
     83          8           0        0.008286   -4.639201    1.280836
     84          8           0       -1.506770    4.736918    0.568866
 ---------------------------------------------------------------------
 Rotational constants (GHZ):           0.0420327           0.0320082           0.0264896
 Standard basis: 6-311++G(d,p) (5D, 7F)
 There are  1420 symmetry adapted cartesian basis functions of A   symmetry.
 There are  1368 symmetry adapted basis functions of A   symmetry.
  1368 basis functions,  2160 primitive gaussians,  1420 cartesian basis functions
   180 alpha electrons      180 beta electrons
       nuclear repulsion energy      6218.3986973501 Hartrees.
 NAtoms=   84 NActive=   84 NUniq=   84 SFac= 1.00D+00 NAtFMM=   60 NAOKFM=T Big=T
 Integral buffers will be    131072 words long.
 Raffenetti 2 integral format.
 Two-electron integral symmetry is turned on.
 Nuclear repulsion after empirical dispersion term =     6218.3308488561 Hartrees.
 One-electron integrals computed using PRISM.
 NBasis=  1368 RedAO= T EigKep=  1.16D-06  NBF=  1368
 NBsUse=  1342 1.00D-06 EigRej=  9.22D-07 NBFU=  1342
 ExpMin= 3.60D-02 ExpMax= 8.59D+03 ExpMxC= 1.30D+03 IAcc=3 IRadAn=         5 AccDes= 0.00D+00
 Harris functional with IExCor= 4639 and IRadAn=       5 diagonalized for initial guess.
 HarFok:  IExCor= 4639 AccDes= 0.00D+00 IRadAn=         5 IDoV= 1 UseB2=F ITyADJ=14
 ICtDFT=  3500011 ScaDFX=  1.000000  1.000000  1.000000  1.000000
 FoFCou: FMM=F IPFlag=           0 FMFlag=      100000 FMFlg1=        2001
         NFxFlg=           0 DoJE=T BraDBF=F KetDBF=T FulRan=T
         wScrn=  0.000000 ICntrl=       500 IOpCl=  0 I1Cent=   200000004 NGrid=           0
         NMat0=    1 NMatS0=      1 NMatT0=    0 NMatD0=    1 NMtDS0=    0 NMtDT0=    0
 Petite list used in FoFCou.
 Requested convergence on RMS density matrix=1.00D-08 within 128 cycles.
 Requested convergence on MAX density matrix=1.00D-06.
 Requested convergence on             energy=1.00D-06.
 No special actions if energy rises.
 SCF Done:  E(RwB97XD) =  -2297.45866301     A.U. after   17 cycles
            NFock= 17  Conv=0.73D-08     -V/T= 2.0041

 **********************************************************************

            Population analysis using the SCF Density.

 **********************************************************************

 Orbital symmetries:
       Occupied  (A) (A) (A) (A) (A) (A) (A) (A) (A) (A) (A) (A)
                 (A) (A) (A) (A) (A) (A) (A) (A) (A) (A) (A) (A)
                 (A) (A) (A) (A) (A) (A) (A) (A) (A) (A) (A) (A)
                 (A) (A) (A) (A) (A) (A) (A) (A) (A) (A) (A) (A)
                 (A) (A) (A) (A) (A) (A) (A) (A) (A) (A) (A) (A)
                 (A) (A) (A) (A) (A) (A) (A) (A) (A) (A) (A) (A)
                 (A) (A) (A) (A) (A) (A) (A) (A) (A) (A) (A) (A)
                 (A) (A) (A) (A) (A) (A) (A) (A) (A) (A) (A) (A)
                 (A) (A) (A) (A) (A) (A) (A) (A) (A) (A) (A) (A)
                 (A) (A) (A) (A) (A) (A) (A) (A) (A) (A) (A) (A)
                 (A) (A) (A) (A) (A) (A) (A) (A) (A) (A) (A) (A)
                 (A) (A) (A) (A) (A) (A) (A) (A) (A) (A) (A) (A)
                 (A) (A) (A) (A) (A) (A) (A) (A) (A) (A) (A) (A)
                 (A) (A) (A) (A) (A) (A) (A) (A) (A) (A) (A) (A)
                 (A) (A) (A) (A) (A) (A) (A) (A) (A) (A) (A) (A)
       Virtual   (A) (A) (A) (A) (A) (A) (A) (A) (A) (A) (A) (A)
                 (A) (A) (A) (A) (A) (A) (A) (A) (A) (A) (A) (A)
                 (A) (A) (A) (A) (A) (A) (A) (A) (A) (A) (A) (A)
                 (A) (A) (A) (A) (A) (A) (A) (A) (A) (A) (A) (A)
                 (A) (A) (A) (A) (A) (A) (A) (A) (A) (A) (A) (A)
                 (A) (A) (A) (A) (A) (A) (A) (A) (A) (A) (A) (A)
                 (A) (A) (A) (A) (A) (A) (A) (A) (A) (A) (A) (A)
                 (A) (A) (A) (A) (A) (A) (A) (A) (A) (A) (A) (A)
                 (A) (A) (A) (A) (A) (A) (A) (A) (A) (A) (A) (A)
                 (A) (A) (A) (A) (A) (A) (A) (A) (A) (A) (A) (A)
                 (A) (A) (A) (A) (A) (A) (A) (A) (A) (A) (A) (A)
                 (A) (A) (A) (A) (A) (A) (A) (A) (A) (A) (A) (A)
                 (A) (A) (A) (A) (A) (A) (A) (A) (A) (A) (A) (A)
                 (A) (A) (A) (A) (A) (A) (A) (A) (A) (A) (A) (A)
                 (A) (A) (A) (A) (A) (A) (A) (A) (A) (A) (A) (A)
                 (A) (A) (A) (A) (A) (A) (A) (A) (A) (A) (A) (A)
                 (A) (A) (A) (A) (A) (A) (A) (A) (A) (A) (A) (A)
                 (A) (A) (A) (A) (A) (A) (A) (A) (A) (A) (A) (A)
                 (A) (A) (A) (A) (A) (A) (A) (A) (A) (A) (A) (A)
                 (A) (A) (A) (A) (A) (A) (A) (A) (A) (A) (A) (A)
                 (A) (A) (A) (A) (A) (A) (A) (A) (A) (A) (A) (A)
                 (A) (A) (A) (A) (A) (A) (A) (A) (A) (A) (A) (A)
                 (A) (A) (A) (A) (A) (A) (A) (A) (A) (A) (A) (A)
                 (A) (A) (A) (A) (A) (A) (A) (A) (A) (A) (A) (A)
                 (A) (A) (A) (A) (A) (A) (A) (A) (A) (A) (A) (A)
                 (A) (A) (A) (A) (A) (A) (A) (A) (A) (A) (A) (A)
                 (A) (A) (A) (A) (A) (A) (A) (A) (A) (A) (A) (A)
                 (A) (A) (A) (A) (A) (A) (A) (A) (A) (A) (A) (A)
                 (A) (A) (A) (A) (A) (A) (A) (A) (A) (A) (A) (A)
                 (A) (A) (A) (A) (A) (A) (A) (A) (A) (A) (A) (A)
                 (A) (A) (A) (A) (A) (A) (A) (A) (A) (A) (A) (A)
                 (A) (A) (A) (A) (A) (A) (A) (A) (A) (A) (A) (A)
                 (A) (A) (A) (A) (A) (A) (A) (A) (A) (A) (A) (A)
                 (A) (A) (A) (A) (A) (A) (A) (A) (A) (A) (A) (A)
                 (A) (A) (A) (A) (A) (A) (A) (A) (A) (A) (A) (A)
                 (A) (A) (A) (A) (A) (A) (A) (A) (A) (A) (A) (A)
                 (A) (A) (A) (A) (A) (A) (A) (A) (A) (A) (A) (A)
                 (A) (A) (A) (A) (A) (A) (A) (A) (A) (A) (A) (A)
                 (A) (A) (A) (A) (A) (A) (A) (A) (A) (A) (A) (A)
                 (A) (A) (A) (A) (A) (A) (A) (A) (A) (A) (A) (A)
                 (A) (A) (A) (A) (A) (A) (A) (A) (A) (A) (A) (A)
                 (A) (A) (A) (A) (A) (A) (A) (A) (A) (A) (A) (A)
                 (A) (A) (A) (A) (A) (A) (A) (A) (A) (A) (A) (A)
                 (A) (A) (A) (A) (A) (A) (A) (A) (A) (A) (A) (A)
                 (A) (A) (A) (A) (A) (A) (A) (A) (A) (A) (A) (A)
                 (A) (A) (A) (A) (A) (A) (A) (A) (A) (A) (A) (A)
                 (A) (A) (A) (A) (A) (A) (A) (A) (A) (A) (A) (A)
                 (A) (A) (A) (A) (A) (A) (A) (A) (A) (A) (A) (A)
                 (A) (A) (A) (A) (A) (A) (A) (A) (A) (A) (A) (A)
                 (A) (A) (A) (A) (A) (A) (A) (A) (A) (A) (A) (A)
                 (A) (A) (A) (A) (A) (A) (A) (A) (A) (A) (A) (A)
                 (A) (A) (A) (A) (A) (A) (A) (A) (A) (A) (A) (A)
                 (A) (A) (A) (A) (A) (A) (A) (A) (A) (A) (A) (A)
                 (A) (A) (A) (A) (A) (A) (A) (A) (A) (A) (A) (A)
                 (A) (A) (A) (A) (A) (A) (A) (A) (A) (A) (A) (A)
                 (A) (A) (A) (A) (A) (A) (A) (A) (A) (A) (A) (A)
                 (A) (A) (A) (A) (A) (A) (A) (A) (A) (A) (A) (A)
                 (A) (A) (A) (A) (A) (A) (A) (A) (A) (A) (A) (A)
                 (A) (A) (A) (A) (A) (A) (A) (A) (A) (A) (A) (A)
                 (A) (A) (A) (A) (A) (A) (A) (A) (A) (A) (A) (A)
                 (A) (A) (A) (A) (A) (A) (A) (A) (A) (A) (A) (A)
                 (A) (A) (A) (A) (A) (A) (A) (A) (A) (A) (A) (A)
                 (A) (A) (A) (A) (A) (A) (A) (A) (A) (A) (A) (A)
                 (A) (A) (A) (A) (A) (A) (A) (A) (A) (A) (A) (A)
                 (A) (A) (A) (A) (A) (A) (A) (A) (A) (A) (A) (A)
                 (A) (A) (A) (A) (A) (A) (A) (A) (A) (A) (A) (A)
                 (A) (A) (A) (A) (A) (A) (A) (A) (A) (A) (A) (A)
                 (A) (A) (A) (A) (A) (A) (A) (A) (A) (A) (A) (A)
                 (A) (A) (A) (A) (A) (A) (A) (A) (A) (A) (A) (A)
                 (A) (A) (A) (A) (A) (A) (A) (A) (A) (A) (A) (A)
                 (A) (A) (A) (A) (A) (A) (A) (A) (A) (A) (A) (A)
                 (A) (A) (A) (A) (A) (A) (A) (A) (A) (A) (A) (A)
                 (A) (A) (A) (A) (A) (A) (A) (A) (A) (A) (A) (A)
                 (A) (A) (A) (A) (A) (A) (A) (A) (A) (A) (A) (A)
                 (A) (A) (A) (A) (A) (A) (A) (A) (A) (A) (A) (A)
                 (A) (A) (A) (A) (A) (A) (A) (A) (A) (A) (A) (A)
                 (A) (A) (A) (A) (A) (A) (A) (A) (A) (A) (A) (A)
                 (A) (A) (A) (A) (A) (A) (A) (A) (A) (A) (A) (A)
                 (A) (A) (A) (A) (A) (A) (A) (A) (A) (A) (A) (A)
                 (A) (A) (A) (A) (A) (A) (A) (A) (A) (A) (A) (A)
                 (A) (A) (A) (A) (A) (A) (A) (A) (A) (A) (A) (A)
                 (A) (A) (A) (A) (A) (A) (A) (A) (A) (A) (A) (A)
                 (A) (A) (A) (A) (A) (A) (A) (A) (A) (A) (A) (A)
                 (A) (A) (A) (A) (A) (A) (A) (A) (A) (A) (A) (A)
                 (A) (A) (A) (A) (A) (A) (A) (A) (A) (A) (A) (A)
                 (A) (A) (A) (A) (A) (A) (A) (A) (A) (A) (A) (A)
                 (A) (A) (A) (A) (A) (A) (A) (A) (A) (A) (A) (A)
                 (A) (A) (A) (A) (A) (A) (A) (A) (A) (A) (A) (A)
                 (A) (A) (A) (A) (A) (A) (A) (A) (A) (A) (A) (A)
                 (A) (A) (A) (A) (A) (A) (A) (A) (A) (A) (A) (A)
                 (A) (A) (A) (A) (A) (A) (A) (A) (A) (A) (A) (A)
                 (A) (A) (A) (A) (A) (A) (A) (A) (A) (A) (A) (A)
                 (A) (A) (A) (A) (A) (A) (A) (A) (A) (A) (A) (A)
                 (A) (A) (A) (A) (A) (A) (A) (A) (A) (A) (A) (A)
                 (A) (A) (A) (A) (A) (A) (A) (A) (A) (A) (A) (A)
                 (A) (A) (A) (A) (A) (A) (A) (A) (A) (A) (A) (A)
                 (A) (A) (A) (A) (A) (A) (A) (A) (A) (A)
 The electronic state is 1-A.
 Alpha  occ. eigenvalues --  -19.30773 -19.30394 -19.30200 -19.30049 -19.28432
 Alpha  occ. eigenvalues --  -19.27966 -19.25599 -19.25134 -10.44417 -10.36505
 Alpha  occ. eigenvalues --  -10.36428 -10.36112 -10.36099 -10.35956 -10.35667
 Alpha  occ. eigenvalues --  -10.35320 -10.34847 -10.34211 -10.33945 -10.33924
 Alpha  occ. eigenvalues --  -10.33370 -10.33069 -10.32200 -10.31765 -10.31481
 Alpha  occ. eigenvalues --  -10.30918 -10.30807 -10.30712 -10.30693 -10.30656
 Alpha  occ. eigenvalues --  -10.30647 -10.30589 -10.30449 -10.30444 -10.30392
 Alpha  occ. eigenvalues --  -10.30379 -10.30350 -10.30328 -10.30322 -10.30252
 Alpha  occ. eigenvalues --  -10.30220 -10.30121 -10.30032 -10.30000 -10.29920
 Alpha  occ. eigenvalues --  -10.29793 -10.29707 -10.29560 -10.29523 -10.29446
 Alpha  occ. eigenvalues --  -10.29427 -10.29401  -1.19809  -1.16946  -1.16755
 Alpha  occ. eigenvalues --   -1.16415  -1.16054  -1.15398  -1.13531  -1.11391
 Alpha  occ. eigenvalues --   -1.01784  -0.99144  -0.98340  -0.97153  -0.96871
 Alpha  occ. eigenvalues --   -0.96688  -0.93233  -0.89790  -0.89455  -0.88387
 Alpha  occ. eigenvalues --   -0.87833  -0.87804  -0.86864  -0.86266  -0.85924
 Alpha  occ. eigenvalues --   -0.85394  -0.85234  -0.84782  -0.84420  -0.83743
 Alpha  occ. eigenvalues --   -0.81489  -0.79207  -0.78043  -0.76305  -0.75093
 Alpha  occ. eigenvalues --   -0.74772  -0.73403  -0.73026  -0.72659  -0.71124
 Alpha  occ. eigenvalues --   -0.70562  -0.69811  -0.69690  -0.69191  -0.68800
 Alpha  occ. eigenvalues --   -0.68306  -0.67339  -0.66389  -0.64724  -0.63493
 Alpha  occ. eigenvalues --   -0.62292  -0.61876  -0.61591  -0.61066  -0.60606
 Alpha  occ. eigenvalues --   -0.59967  -0.59281  -0.58994  -0.58749  -0.58541
 Alpha  occ. eigenvalues --   -0.58348  -0.58199  -0.56678  -0.56397  -0.56049
 Alpha  occ. eigenvalues --   -0.55885  -0.55534  -0.55424  -0.55299  -0.55005
 Alpha  occ. eigenvalues --   -0.54793  -0.54656  -0.54392  -0.54306  -0.54035
 Alpha  occ. eigenvalues --   -0.53793  -0.53629  -0.53522  -0.53257  -0.52337
 Alpha  occ. eigenvalues --   -0.52012  -0.51724  -0.51491  -0.51270  -0.51075
 Alpha  occ. eigenvalues --   -0.50857  -0.50597  -0.49819  -0.49695  -0.48880
 Alpha  occ. eigenvalues --   -0.48485  -0.47556  -0.47401  -0.47328  -0.46825
 Alpha  occ. eigenvalues --   -0.46642  -0.46395  -0.45840  -0.45522  -0.45463
 Alpha  occ. eigenvalues --   -0.45207  -0.44868  -0.44770  -0.44341  -0.44300
 Alpha  occ. eigenvalues --   -0.43958  -0.43301  -0.42950  -0.42674  -0.42523
 Alpha  occ. eigenvalues --   -0.42069  -0.41264  -0.41054  -0.40423  -0.39129
 Alpha  occ. eigenvalues --   -0.38830  -0.37749  -0.36993  -0.36809  -0.35186
 Alpha  occ. eigenvalues --   -0.35130  -0.34248  -0.34112  -0.33749  -0.33557
 Alpha  occ. eigenvalues --   -0.31674  -0.31026  -0.30575  -0.29974  -0.28446
 Alpha virt. eigenvalues --    0.00794   0.01656   0.02524   0.03363   0.03685
 Alpha virt. eigenvalues --    0.03905   0.04013   0.04131   0.04241   0.04456
 Alpha virt. eigenvalues --    0.04842   0.04940   0.05023   0.05261   0.05350
 Alpha virt. eigenvalues --    0.05503   0.05630   0.05909   0.05950   0.06329
 Alpha virt. eigenvalues --    0.06438   0.06698   0.06795   0.06935   0.07113
 Alpha virt. eigenvalues --    0.07274   0.07667   0.07998   0.08019   0.08194
 Alpha virt. eigenvalues --    0.08383   0.08541   0.08776   0.08863   0.09071
 Alpha virt. eigenvalues --    0.09289   0.09613   0.09882   0.10087   0.10212
 Alpha virt. eigenvalues --    0.10411   0.10500   0.10767   0.11125   0.11297
 Alpha virt. eigenvalues --    0.11557   0.11759   0.12175   0.12378   0.12450
 Alpha virt. eigenvalues --    0.12849   0.12982   0.13063   0.13449   0.13631
 Alpha virt. eigenvalues --    0.13712   0.14023   0.14051   0.14306   0.14416
 Alpha virt. eigenvalues --    0.14848   0.14922   0.15020   0.15167   0.15199
 Alpha virt. eigenvalues --    0.15366   0.15609   0.15690   0.15739   0.15875
 Alpha virt. eigenvalues --    0.16101   0.16278   0.16332   0.16346   0.16629
 Alpha virt. eigenvalues --    0.16709   0.16809   0.16993   0.17107   0.17205
 Alpha virt. eigenvalues --    0.17301   0.17348   0.17531   0.17684   0.17878
 Alpha virt. eigenvalues --    0.18003   0.18115   0.18184   0.18292   0.18540
 Alpha virt. eigenvalues --    0.18622   0.18769   0.18871   0.18982   0.19100
 Alpha virt. eigenvalues --    0.19127   0.19214   0.19447   0.19460   0.19577
 Alpha virt. eigenvalues --    0.19745   0.19872   0.19928   0.20197   0.20375
 Alpha virt. eigenvalues --    0.20547   0.20617   0.20779   0.20885   0.21020
 Alpha virt. eigenvalues --    0.21200   0.21325   0.21378   0.21478   0.21623
 Alpha virt. eigenvalues --    0.21766   0.22014   0.22209   0.22282   0.22351
 Alpha virt. eigenvalues --    0.22437   0.22682   0.22704   0.23119   0.23160
 Alpha virt. eigenvalues --    0.23186   0.23220   0.23380   0.23492   0.23526
 Alpha virt. eigenvalues --    0.23879   0.23938   0.24201   0.24263   0.24408
 Alpha virt. eigenvalues --    0.24619   0.24684   0.24760   0.24894   0.25095
 Alpha virt. eigenvalues --    0.25273   0.25431   0.25514   0.25675   0.25857
 Alpha virt. eigenvalues --    0.26240   0.26386   0.26545   0.26619   0.26788
 Alpha virt. eigenvalues --    0.26876   0.27212   0.27274   0.27373   0.27596
 Alpha virt. eigenvalues --    0.27717   0.27761   0.27896   0.27996   0.28173
 Alpha virt. eigenvalues --    0.28250   0.28457   0.28520   0.28847   0.29008
 Alpha virt. eigenvalues --    0.29188   0.29245   0.29445   0.29682   0.29808
 Alpha virt. eigenvalues --    0.30093   0.30168   0.30257   0.30304   0.30526
 Alpha virt. eigenvalues --    0.30628   0.30881   0.31003   0.31243   0.31339
 Alpha virt. eigenvalues --    0.31462   0.31708   0.31749   0.31894   0.32246
 Alpha virt. eigenvalues --    0.32394   0.32433   0.32586   0.32644   0.32834
 Alpha virt. eigenvalues --    0.32988   0.33216   0.33247   0.33408   0.33681
 Alpha virt. eigenvalues --    0.33793   0.33925   0.34057   0.34186   0.34386
 Alpha virt. eigenvalues --    0.34536   0.34563   0.34706   0.34817   0.34940
 Alpha virt. eigenvalues --    0.34970   0.35102   0.35487   0.35579   0.35716
 Alpha virt. eigenvalues --    0.35856   0.36117   0.36153   0.36324   0.36497
 Alpha virt. eigenvalues --    0.36599   0.36756   0.36829   0.37017   0.37021
 Alpha virt. eigenvalues --    0.37224   0.37471   0.37581   0.37819   0.37871
 Alpha virt. eigenvalues --    0.38195   0.38339   0.38462   0.38527   0.38690
 Alpha virt. eigenvalues --    0.38949   0.39080   0.39093   0.39226   0.39372
 Alpha virt. eigenvalues --    0.39554   0.39843   0.40018   0.40170   0.40279
 Alpha virt. eigenvalues --    0.40582   0.40712   0.40791   0.40997   0.41333
 Alpha virt. eigenvalues --    0.41403   0.41438   0.41706   0.41887   0.42074
 Alpha virt. eigenvalues --    0.42367   0.42501   0.42753   0.43029   0.43217
 Alpha virt. eigenvalues --    0.43430   0.43517   0.43661   0.43817   0.43877
 Alpha virt. eigenvalues --    0.44056   0.44244   0.44315   0.44512   0.44584
 Alpha virt. eigenvalues --    0.44836   0.44997   0.45088   0.45264   0.45395
 Alpha virt. eigenvalues --    0.45655   0.45800   0.46090   0.46208   0.46354
 Alpha virt. eigenvalues --    0.46573   0.46705   0.46987   0.47319   0.47533
 Alpha virt. eigenvalues --    0.48081   0.48181   0.48379   0.48464   0.48850
 Alpha virt. eigenvalues --    0.48985   0.49331   0.49594   0.49838   0.49918
 Alpha virt. eigenvalues --    0.50442   0.50690   0.51035   0.51118   0.51423
 Alpha virt. eigenvalues --    0.51710   0.51903   0.52175   0.52516   0.52712
 Alpha virt. eigenvalues --    0.53114   0.53401   0.53851   0.54003   0.54118
 Alpha virt. eigenvalues --    0.54459   0.54676   0.55258   0.55559   0.55747
 Alpha virt. eigenvalues --    0.56662   0.56788   0.57112   0.57359   0.57989
 Alpha virt. eigenvalues --    0.58944   0.59227   0.59390   0.59468   0.60309
 Alpha virt. eigenvalues --    0.60794   0.61154   0.61372   0.61529   0.61967
 Alpha virt. eigenvalues --    0.61993   0.62276   0.62444   0.62552   0.62726
 Alpha virt. eigenvalues --    0.63169   0.63338   0.63737   0.63868   0.63936
 Alpha virt. eigenvalues --    0.64294   0.64477   0.64667   0.65115   0.65335
 Alpha virt. eigenvalues --    0.65689   0.65908   0.66129   0.66464   0.66753
 Alpha virt. eigenvalues --    0.67234   0.67619   0.67731   0.67792   0.68196
 Alpha virt. eigenvalues --    0.68459   0.69092   0.69132   0.69538   0.69573
 Alpha virt. eigenvalues --    0.69756   0.70042   0.70251   0.71114   0.71279
 Alpha virt. eigenvalues --    0.71388   0.71536   0.71828   0.72128   0.72364
 Alpha virt. eigenvalues --    0.72536   0.73046   0.73407   0.73648   0.73706
 Alpha virt. eigenvalues --    0.73855   0.74019   0.74211   0.74329   0.74640
 Alpha virt. eigenvalues --    0.74931   0.75156   0.75240   0.75485   0.75887
 Alpha virt. eigenvalues --    0.76158   0.76563   0.76834   0.77006   0.77047
 Alpha virt. eigenvalues --    0.77504   0.77573   0.77794   0.78215   0.78466
 Alpha virt. eigenvalues --    0.78701   0.79121   0.79364   0.79783   0.79815
 Alpha virt. eigenvalues --    0.80090   0.80203   0.80284   0.80451   0.80613
 Alpha virt. eigenvalues --    0.81142   0.81349   0.81639   0.81844   0.81965
 Alpha virt. eigenvalues --    0.82095   0.82265   0.82435   0.82844   0.83039
 Alpha virt. eigenvalues --    0.83427   0.83494   0.83897   0.84161   0.84354
 Alpha virt. eigenvalues --    0.84534   0.84609   0.84995   0.85360   0.85560
 Alpha virt. eigenvalues --    0.85653   0.85767   0.86317   0.86625   0.87055
 Alpha virt. eigenvalues --    0.87123   0.87367   0.87545   0.87648   0.87708
 Alpha virt. eigenvalues --    0.88323   0.88508   0.88914   0.89308   0.89389
 Alpha virt. eigenvalues --    0.89810   0.90234   0.90379   0.90779   0.91172
 Alpha virt. eigenvalues --    0.91304   0.91805   0.92302   0.92387   0.92925
 Alpha virt. eigenvalues --    0.92968   0.93279   0.93497   0.93810   0.94057
 Alpha virt. eigenvalues --    0.94177   0.94457   0.94671   0.95156   0.95529
 Alpha virt. eigenvalues --    0.95788   0.96026   0.96207   0.96369   0.96695
 Alpha virt. eigenvalues --    0.96942   0.97171   0.97656   0.97948   0.98563
 Alpha virt. eigenvalues --    0.98662   0.99399   0.99842   1.00365   1.00747
 Alpha virt. eigenvalues --    1.00913   1.01255   1.01537   1.02001   1.02308
 Alpha virt. eigenvalues --    1.02445   1.02910   1.03264   1.03573   1.03836
 Alpha virt. eigenvalues --    1.04021   1.04146   1.04597   1.04955   1.05567
 Alpha virt. eigenvalues --    1.05894   1.06140   1.06206   1.06644   1.06956
 Alpha virt. eigenvalues --    1.07481   1.07797   1.07972   1.08591   1.08848
 Alpha virt. eigenvalues --    1.08998   1.09953   1.10162   1.10347   1.10675
 Alpha virt. eigenvalues --    1.10852   1.11175   1.11447   1.11523   1.11849
 Alpha virt. eigenvalues --    1.11943   1.12372   1.12563   1.13027   1.13482
 Alpha virt. eigenvalues --    1.13726   1.13769   1.14183   1.14370   1.14677
 Alpha virt. eigenvalues --    1.14790   1.15027   1.15447   1.15880   1.16077
 Alpha virt. eigenvalues --    1.16497   1.16647   1.17005   1.17350   1.17467
 Alpha virt. eigenvalues --    1.18185   1.18274   1.18434   1.18716   1.18856
 Alpha virt. eigenvalues --    1.19163   1.19581   1.19939   1.20013   1.20219
 Alpha virt. eigenvalues --    1.20399   1.21151   1.21387   1.22060   1.22240
 Alpha virt. eigenvalues --    1.22672   1.23309   1.23509   1.23906   1.24378
 Alpha virt. eigenvalues --    1.24550   1.25004   1.25347   1.25959   1.26471
 Alpha virt. eigenvalues --    1.27037   1.27771   1.28392   1.28441   1.29030
 Alpha virt. eigenvalues --    1.29609   1.29855   1.30606   1.31301   1.31530
 Alpha virt. eigenvalues --    1.31964   1.32155   1.32547   1.33594   1.33901
 Alpha virt. eigenvalues --    1.34708   1.35217   1.35936   1.36943   1.37535
 Alpha virt. eigenvalues --    1.37650   1.37948   1.38009   1.38112   1.38934
 Alpha virt. eigenvalues --    1.39438   1.40074   1.40266   1.40919   1.41642
 Alpha virt. eigenvalues --    1.42502   1.42605   1.43097   1.43453   1.43805
 Alpha virt. eigenvalues --    1.44636   1.44762   1.45459   1.46555   1.47046
 Alpha virt. eigenvalues --    1.47384   1.47884   1.48191   1.49148   1.49959
 Alpha virt. eigenvalues --    1.50184   1.52207   1.52506   1.52810   1.53359
 Alpha virt. eigenvalues --    1.54156   1.54514   1.54985   1.55291   1.56033
 Alpha virt. eigenvalues --    1.56134   1.56467   1.56776   1.57013   1.57606
 Alpha virt. eigenvalues --    1.57894   1.58836   1.59236   1.59365   1.60124
 Alpha virt. eigenvalues --    1.60398   1.61173   1.61820   1.62172   1.62572
 Alpha virt. eigenvalues --    1.62916   1.63236   1.63590   1.63675   1.63808
 Alpha virt. eigenvalues --    1.63965   1.63984   1.64200   1.64332   1.64433
 Alpha virt. eigenvalues --    1.64597   1.65045   1.65549   1.65827   1.65993
 Alpha virt. eigenvalues --    1.66244   1.66697   1.67054   1.67218   1.67511
 Alpha virt. eigenvalues --    1.67726   1.67990   1.68314   1.68861   1.69226
 Alpha virt. eigenvalues --    1.69773   1.69931   1.70412   1.70561   1.70640
 Alpha virt. eigenvalues --    1.71272   1.71502   1.71974   1.72336   1.72682
 Alpha virt. eigenvalues --    1.72819   1.73301   1.73673   1.73980   1.74532
 Alpha virt. eigenvalues --    1.74652   1.74669   1.75073   1.75702   1.76191
 Alpha virt. eigenvalues --    1.76266   1.77609   1.77712   1.78053   1.78688
 Alpha virt. eigenvalues --    1.78713   1.79217   1.80013   1.80306   1.80813
 Alpha virt. eigenvalues --    1.81166   1.81501   1.82015   1.82252   1.82287
 Alpha virt. eigenvalues --    1.82422   1.82855   1.83288   1.83640   1.83909
 Alpha virt. eigenvalues --    1.84481   1.85152   1.85432   1.85952   1.86299
 Alpha virt. eigenvalues --    1.86582   1.87517   1.87667   1.88032   1.88789
 Alpha virt. eigenvalues --    1.88909   1.89455   1.89928   1.90079   1.91059
 Alpha virt. eigenvalues --    1.91560   1.92239   1.92662   1.93510   1.93827
 Alpha virt. eigenvalues --    1.94122   1.94263   1.94931   1.95001   1.95180
[...]
 Alpha virt. eigenvalues --    1.06044   1.06461   1.07234   1.07385   1.07733
 Alpha virt. eigenvalues --    1.07979   1.08125   1.08479   1.08749   1.09056
 Alpha virt. eigenvalues --    1.09205   1.09611   1.10010   1.10069   1.10288
 Alpha virt. eigenvalues --    1.10409   1.10487   1.10856   1.11460   1.11466
 Alpha virt. eigenvalues --    1.11814   1.11886   1.12473   1.12520   1.12614
 Alpha virt. eigenvalues --    1.12845   1.13120   1.13207   1.13638   1.13964
 Alpha virt. eigenvalues --    1.14099   1.14115   1.14396   1.14714   1.14897
 Alpha virt. eigenvalues --    1.15208   1.16048   1.16351   1.16710   1.17371
 Alpha virt. eigenvalues --    1.17400   1.17729   1.17766   1.18258   1.18583
 Alpha virt. eigenvalues --    1.18798   1.18820   1.18990   1.19748   1.19854
 Alpha virt. eigenvalues --    1.20547   1.20802   1.21229   1.21245   1.21809
 Alpha virt. eigenvalues --    1.22054   1.22201   1.22535   1.22713   1.23117
 Alpha virt. eigenvalues --    1.23696   1.24233   1.24863   1.24938   1.25056
 Alpha virt. eigenvalues --    1.25979   1.26265   1.27097   1.27709   1.27821
 Alpha virt. eigenvalues --    1.28665   1.28908   1.29414   1.29555   1.29829
 Alpha virt. eigenvalues --    1.30417   1.31632   1.31667   1.32788   1.33254
 Alpha virt. eigenvalues --    1.33588   1.33925   1.34183   1.35014   1.35474
 Alpha virt. eigenvalues --    1.36417   1.36545   1.36933   1.37253   1.38018
 Alpha virt. eigenvalues --    1.38121   1.38775   1.39162   1.39860   1.40101
 Alpha virt. eigenvalues --    1.40347   1.40438   1.41497   1.41628   1.41877
 Alpha virt. eigenvalues --    1.42656   1.43635   1.43851   1.44703   1.45258
 Alpha virt. eigenvalues --    1.45386   1.46500   1.46702   1.47550   1.47662
 Alpha virt. eigenvalues --    1.48061   1.48723   1.49935   1.51898   1.52010
 Alpha virt. eigenvalues --    1.52465   1.52580   1.53352   1.54099   1.54525
 Alpha virt. eigenvalues --    1.55261   1.55527   1.56143   1.56207   1.56375
 Alpha virt. eigenvalues --    1.56687   1.56888   1.57877   1.58159   1.58166
 Alpha virt. eigenvalues --    1.59300   1.59424   1.60542   1.61230   1.61874
 Alpha virt. eigenvalues --    1.62187   1.62469   1.62844   1.63167   1.63391
 Alpha virt. eigenvalues --    1.63723   1.63893   1.64566   1.64834   1.64973
 Alpha virt. eigenvalues --    1.65080   1.65222   1.65511   1.65678   1.65830
 Alpha virt. eigenvalues --    1.65865   1.66175   1.66229   1.66638   1.67022
 Alpha virt. eigenvalues --    1.67099   1.67313   1.67314   1.68388   1.68447
 Alpha virt. eigenvalues --    1.68699   1.68769   1.68922   1.69530   1.70040
 Alpha virt. eigenvalues --    1.70104   1.70463   1.70629   1.71173   1.71544
 Alpha virt. eigenvalues --    1.72755   1.72970   1.73927   1.74114   1.74181
 Alpha virt. eigenvalues --    1.74535   1.74644   1.75105   1.75369   1.75449
 Alpha virt. eigenvalues --    1.75747   1.75855   1.76654   1.76722   1.77819
 Alpha virt. eigenvalues --    1.78032   1.78432   1.79096   1.79533   1.79835
 Alpha virt. eigenvalues --    1.80031   1.80104   1.80550   1.80693   1.81079
 Alpha virt. eigenvalues --    1.81388   1.81941   1.82613   1.82757   1.83347
 Alpha virt. eigenvalues --    1.83875   1.84176   1.84181   1.84616   1.85433
 Alpha virt. eigenvalues --    1.85681   1.86911   1.86968   1.87603   1.88000
 Alpha virt. eigenvalues --    1.88113   1.88882   1.89095   1.89492   1.90439
 Alpha virt. eigenvalues --    1.90578   1.91040   1.91330   1.91408   1.92183
 Alpha virt. eigenvalues --    1.92964   1.93685   1.93877   1.94195   1.94569
 Alpha virt. eigenvalues --    1.94685   1.94708   1.95144   1.95450   1.96499
 Alpha virt. eigenvalues --    1.96720   1.96935   1.97289   1.97754   1.98069
 Alpha virt. eigenvalues --    1.98339   1.98428   1.98479   1.99138   1.99664
 Alpha virt. eigenvalues --    1.99770   2.00273   2.00436   2.01074   2.01357
 Alpha virt. eigenvalues --    2.01507   2.02007   2.02362   2.02641   2.02850
 Alpha virt. eigenvalues --    2.03466   2.03475   2.04556   2.04723   2.05211
 Alpha virt. eigenvalues --    2.06020   2.06501   2.07092   2.07282   2.07906
 Alpha virt. eigenvalues --    2.07959   2.08618   2.09188   2.09325   2.10717
 Alpha virt. eigenvalues --    2.10750   2.10829   2.11223   2.11630   2.12177
 Alpha virt. eigenvalues --    2.13090   2.13697   2.14238   2.14870   2.14922
 Alpha virt. eigenvalues --    2.14984   2.16110   2.16743   2.16922   2.17424
 Alpha virt. eigenvalues --    2.18205   2.18492   2.19366   2.19422   2.19529
 Alpha virt. eigenvalues --    2.19704   2.20473   2.20927   2.21245   2.21653
 Alpha virt. eigenvalues --    2.21810   2.22695   2.23377   2.23386   2.23699
 Alpha virt. eigenvalues --    2.24291   2.24511   2.24801   2.24803   2.25960
 Alpha virt. eigenvalues --    2.26765   2.27144   2.28064   2.28572   2.29818
 Alpha virt. eigenvalues --    2.30270   2.30358   2.31006   2.31161   2.31247
 Alpha virt. eigenvalues --    2.32282   2.33054   2.34318   2.34548   2.35202
 Alpha virt. eigenvalues --    2.36612   2.36677   2.36976   2.37145   2.37179
 Alpha virt. eigenvalues --    2.37463   2.39547   2.40667   2.40690   2.42133
 Alpha virt. eigenvalues --    2.42357   2.43025   2.43807   2.44885   2.45311
 Alpha virt. eigenvalues --    2.46461   2.46465   2.47506   2.48140   2.49523
 Alpha virt. eigenvalues --    2.50119   2.50254   2.51516   2.52139   2.52162
 Alpha virt. eigenvalues --    2.52303   2.53193   2.53634   2.54968   2.54985
 Alpha virt. eigenvalues --    2.55688   2.55737   2.55875   2.56542   2.57660
 Alpha virt. eigenvalues --    2.58347   2.58660   2.58947   2.59345   2.60189
 Alpha virt. eigenvalues --    2.60310   2.60407   2.61019   2.61080   2.61328
 Alpha virt. eigenvalues --    2.62417   2.62700   2.63097   2.64116   2.65133
 Alpha virt. eigenvalues --    2.65546   2.65750   2.66713   2.67055   2.68968
 Alpha virt. eigenvalues --    2.69497   2.69830   2.70694   2.71028   2.73346
 Alpha virt. eigenvalues --    2.73620   2.74561   2.75311   2.75338   2.76025
 Alpha virt. eigenvalues --    2.76137   2.76268   2.76399   2.76782   2.77394
 Alpha virt. eigenvalues --    2.77940   2.78511   2.78714   2.79536   2.80063
 Alpha virt. eigenvalues --    2.80433   2.81803   2.81868   2.82126   2.82348
 Alpha virt. eigenvalues --    2.82639   2.82643   2.84557   2.84794   2.84952
 Alpha virt. eigenvalues --    2.85124   2.85692   2.85823   2.85838   2.87256
 Alpha virt. eigenvalues --    2.87599   2.87674   2.87983   2.88522   2.88850
 Alpha virt. eigenvalues --    2.89206   2.89383   2.89638   2.89793   2.90412
 Alpha virt. eigenvalues --    2.90637   2.91897   2.92734   2.93185   2.93330
 Alpha virt. eigenvalues --    2.93396   2.93592   2.93827   2.94666   2.94957
 Alpha virt. eigenvalues --    2.95635   2.95959   2.96276   2.96626   2.96932
 Alpha virt. eigenvalues --    2.97569   2.97849   2.98465   2.99441   2.99831
 Alpha virt. eigenvalues --    3.00230   3.00265   3.00495   3.00506   3.02428
 Alpha virt. eigenvalues --    3.03816   3.04545   3.04920   3.05017   3.05482
 Alpha virt. eigenvalues --    3.06025   3.07111   3.07485   3.07644   3.09466
 Alpha virt. eigenvalues --    3.10857   3.11232   3.11250   3.11515   3.11817
 Alpha virt. eigenvalues --    3.12723   3.13370   3.13826   3.14312   3.14530
 Alpha virt. eigenvalues --    3.14908   3.15196   3.16006   3.16112   3.16368
 Alpha virt. eigenvalues --    3.17338   3.17370   3.18073   3.18439   3.19349
 Alpha virt. eigenvalues --    3.19506   3.19647   3.20123   3.20361   3.20788
 Alpha virt. eigenvalues --    3.21657   3.22248   3.23520   3.24508   3.24933
 Alpha virt. eigenvalues --    3.25191   3.26304   3.27089   3.28224   3.28651
 Alpha virt. eigenvalues --    3.28659   3.28814   3.29097   3.29385   3.29619
 Alpha virt. eigenvalues --    3.29980   3.30610   3.30831   3.32762   3.33694
 Alpha virt. eigenvalues --    3.33914   3.34668   3.35692   3.36012   3.36327
 Alpha virt. eigenvalues --    3.36547   3.36958   3.38088   3.38874   3.39591
 Alpha virt. eigenvalues --    3.40065   3.42024   3.43084   3.44058   3.44455
 Alpha virt. eigenvalues --    3.46178   3.47572   3.47780   3.48761   3.49730
 Alpha virt. eigenvalues --    3.51022   3.51820   3.52495   3.52951   3.54188
 Alpha virt. eigenvalues --    3.55124   3.56358   3.56635   3.57717   3.60603
 Alpha virt. eigenvalues --    3.61841   3.63148   3.63891   3.65433   3.65517
 Alpha virt. eigenvalues --    3.67532   3.69340   3.71200   3.71463   3.72555
 Alpha virt. eigenvalues --    3.73654   3.74042   3.75243   3.75635   3.75721
 Alpha virt. eigenvalues --    3.78002   3.79479   3.79897   3.80284   3.82420
 Alpha virt. eigenvalues --    3.83139   3.84346   3.84985   3.86712   3.86962
 Alpha virt. eigenvalues --    3.88175   3.89000   3.89335   3.89375   3.89670
 Alpha virt. eigenvalues --    3.90430   3.92169   3.92353   3.94883   3.95598
 Alpha virt. eigenvalues --    3.95962   4.01092   4.07956   4.12578   4.13386
 Alpha virt. eigenvalues --    4.13399   4.14194   4.15236   4.15310   4.18971
 Alpha virt. eigenvalues --    4.19600   4.19839   4.21303   4.21708   4.23366
 Alpha virt. eigenvalues --    4.25625   4.25698   4.26611   4.28463   4.31627
 Alpha virt. eigenvalues --    4.33135   4.33373   4.33570   4.35162   4.36421
 Alpha virt. eigenvalues --    4.36559   4.37309   4.38209   4.39750   4.40410
 Alpha virt. eigenvalues --    4.41880   4.42621   4.47467   4.53082   4.60807
 Alpha virt. eigenvalues --    4.67548   4.72080   4.75156   4.93928   4.94502
 Alpha virt. eigenvalues --    4.97027   4.98135   5.00122   5.01566   5.11733
 Alpha virt. eigenvalues --    5.12446   5.12619   5.15924   5.16372   5.17943
 Alpha virt. eigenvalues --    5.18543   5.24573   5.32887   5.47515   5.49675
 Alpha virt. eigenvalues --    5.54539   5.55604   5.58104   5.59090   5.60236
 Alpha virt. eigenvalues --    5.75749   5.81524   5.95015   5.97716   6.00032
 Alpha virt. eigenvalues --    6.03692   6.05086   6.08759  23.69402  23.71496
 Alpha virt. eigenvalues --   23.77648  23.83957  23.84026  23.88857  23.97764
 Alpha virt. eigenvalues --   23.98527  23.99362  24.02648  24.03163  24.04712
 Alpha virt. eigenvalues --   24.05688  24.07875  24.07962  24.08097  24.08176
 Alpha virt. eigenvalues --   24.09406  24.09877  24.10388  24.10904  24.11832
 Alpha virt. eigenvalues --   24.12591  24.14255  24.15084  24.16019  24.18240
 Alpha virt. eigenvalues --   24.21470  24.21933  24.22061  24.23178  24.24206
 Alpha virt. eigenvalues --   24.24227  24.26010  24.26551  24.26796  24.27808
 Alpha virt. eigenvalues --   24.29009  24.32098  24.32874  24.34017  24.34606
 Alpha virt. eigenvalues --   24.34973  24.36759  50.04283  50.06955  50.12197
 Alpha virt. eigenvalues --   50.12377  50.12878  50.13376  50.13756  50.16614
          Condensed to atoms (all electrons):
 Mulliken charges:
               1
     1  C   -0.141801
     2  C   -0.272463
     3  C    0.081453
     4  C    0.683914
     5  C   -0.690467
     6  C   -0.431619
     7  H    0.206285
     8  H    0.216718
     9  H    0.257307
    10  C    0.287331
    11  C   -0.144637
    12  C   -0.324099
    13  C   -0.938114
    14  C   -0.058673
    15  H    0.180823
    16  C   -0.046739
    17  H    0.296032
    18  H    0.217952
    19  C    2.018553
    20  C    0.024223
    21  C   -0.084473
    22  C   -1.122887
    23  C   -0.348385
    24  C   -0.477309
    25  H    0.286877
    26  C    0.941160
    27  H    0.217332
    28  C    0.024006
    29  C   -1.122830
    30  C   -0.084655
    31  C   -0.477217
    32  H    0.286881
    33  C   -0.348430
    34  C    0.941347
    35  H    0.217332
    36  O   -0.100849
    37  O   -0.078116
    38  O   -0.063165
    39  C   -0.533496
    40  H    0.196866
    41  H    0.196953
    42  C   -0.131769
    43  H    0.238094
    44  H    0.238028
    45  C   -0.499003
    46  H    0.192029
    47  H    0.192001
    48  C   -0.102560
    49  H    0.176266
    50  H    0.176288
    51  O   -0.009914
    52  O   -0.135074
    53  C    0.287036
    54  C   -0.276897
    55  H    0.135616
    56  H    0.172044
    57  H    0.135605
    58  C   -0.668594
    59  H    0.196926
    60  H    0.189857
    61  H    0.190160
    62  O   -0.267436
    63  C   -0.481878
    64  C    1.112550
    65  C   -0.277822
    66  C   -0.209187
    67  C   -0.437262
    68  C   -0.674018
    69  H    0.166682
    70  H    0.217265
    71  H    0.205314
    72  H    0.231800
    73  C   -0.437526
    74  C   -0.208973
    75  C   -0.278148
    76  C    1.112651
    77  C   -0.481806
    78  C   -0.674033
    79  H    0.205311
    80  H    0.217273
    81  H    0.166677
    82  H    0.231805
    83  O   -0.012147
    84  O   -0.012149
 Sum of Mulliken charges =  -0.00000
 Mulliken charges with hydrogens summed into heavy atoms:
               1
     1  C    0.064485
     2  C   -0.055746
     3  C    0.081453
     4  C    0.683914
     5  C   -0.433160
     6  C   -0.431619
    10  C    0.287331
    11  C   -0.144637
    12  C   -0.143277
    13  C   -0.642083
    14  C    0.159279
    16  C   -0.046739
    19  C    2.018553
    20  C    0.024223
    21  C   -0.084473
    22  C   -0.836011
    23  C   -0.131053
    24  C   -0.477309
    26  C    0.941160
    28  C    0.024006
    29  C   -0.835948
    30  C   -0.084655
    31  C   -0.477217
    33  C   -0.131098
    34  C    0.941347
    36  O   -0.100849
    37  O   -0.078116
    38  O   -0.063165
    39  C   -0.139677
    42  C    0.344352
    45  C   -0.114973
    48  C    0.249994
    51  O   -0.009914
    52  O   -0.135074
    53  C    0.287036
    54  C    0.166368
    58  C   -0.091651
    62  O   -0.267436
    63  C   -0.481878
    64  C    1.112550
    65  C   -0.111140
    66  C    0.008077
    67  C   -0.231947
    68  C   -0.442218
    73  C   -0.232215
    74  C    0.008300
    75  C   -0.111471
    76  C    1.112651
    77  C   -0.481806
    78  C   -0.442229
    83  O   -0.012147
    84  O   -0.012149
 Electronic spatial extent (au):  <R**2>=          45383.7244
 Charge=              0.0000 electrons
 Dipole moment (field-independent basis, Debye):
    X=              1.4245    Y=             -0.0035    Z=             -2.2783  Tot=              2.6870
 Quadrupole moment (field-independent basis, Debye-Ang):
   XX=           -272.7808   YY=           -280.1331   ZZ=           -274.6140
   XY=              0.0291   XZ=             33.2786   YZ=              0.0078
 Traceless Quadrupole moment (field-independent basis, Debye-Ang):
   XX=              3.0618   YY=             -4.2905   ZZ=              1.2286
   XY=              0.0291   XZ=             33.2786   YZ=              0.0078
 Octapole moment (field-independent basis, Debye-Ang**2):
  XXX=            163.6662  YYY=             -0.0182  ZZZ=            -16.2983  XYY=            -29.3336
  XXY=             -0.3310  XXZ=           -287.1156  XZZ=            -16.9451  YZZ=             -0.0001
  YYZ=             95.7342  XYZ=             -0.0556
 Hexadecapole moment (field-independent basis, Debye-Ang**3):
 XXXX=         -25772.6671 YYYY=         -18640.5426 ZZZZ=          -9884.4051 XXXY=              3.8112
 XXXZ=           1767.4146 YYYX=             -0.4402 YYYZ=              0.2001 ZZZX=            450.3524
 ZZZY=              0.0673 XXYY=          -8542.9172 XXZZ=          -6252.3647 YYZZ=          -4836.1572
 XXYZ=              0.3588 YYXZ=            260.8475 ZZXY=             -0.0910
 N-N= 6.245783981107D+03 E-N=-1.784809479450D+04  KE= 2.288790720798D+03
 Unable to Open any file for archive entry.
 1\1\GINC-SKKUPSL\FOpt\RwB97XD\6-311++G(d,p)\C44H32O8\PSL\03-Nov-2025\0
 \\# opt wb97xd/6-311++g(d,p) geom=connectivity\\Title Card Required\\0
 ,1\C,-3.8902205641,0.1421870849,-3.29147844\C,-4.0577032657,0.10176599
 15,-1.907999756\C,-2.9447705461,0.0814284756,-1.0835571986\C,-1.665128
 5405,0.1017566808,-1.6508384351\C,-1.4814372321,0.1416620623,-3.014784
 \C,-2.6075857787,0.1620180308,-3.8418513897\H,-4.7657433725,0.15781687
 47,-3.9271954496\H,-5.0595218713,0.0867058413,-1.4927350221\H,-0.49340
 58486,0.1575700345,-3.4604421083\C,-2.8092305643,0.0396720692,0.377277
 7556\C,-1.4467228749,0.0345920575,0.698865395\C,-3.7502573686,0.007428
 6569,1.3918312061\C,-1.0127863297,-0.0018109331,2.0041040422\C,-3.3302
 519902,-0.029709012,2.7207849962\H,-4.8118113317,0.0106307483,1.168713
 3968\C,-1.9677801388,-0.0343070816,3.0252095669\H,0.0401349488,-0.0060
 263925,2.2632751937\H,-4.0728544361,-0.0547557988,3.5070962072\C,-0.59
 01540403,0.0739669512,-0.5719714258\C,0.2748287428,1.3253937788,-0.586
 1873915\C,1.6081510977,1.249072086,-0.1682815462\C,-0.2637912365,2.563
 137138,-0.9327610091\C,2.4240452603,2.3679922164,-0.0772512562\C,0.551
 3970028,3.6691551956,-0.8374828223\H,-1.292837013,2.650423225,-1.25840
 3105\C,1.8821154661,3.5997013776,-0.4139773912\H,3.4508483181,2.252824
 9007,0.2468624673\C,0.2826642269,-1.1690799447,-0.6582293566\C,-0.2482
 198449,-2.3881066939,-1.075781358\C,1.6155646433,-1.1086311047,-0.2363
 74857\C,0.5739325991,-3.4926367781,-1.044363222\H,-1.2767538985,-2.462
 9372998,-1.4061075305\C,2.4384888789,-2.22578463,-0.2099313186\C,1.904
 2548812,-3.4393911387,-0.6173103501\H,3.4646045716,-2.1230639773,0.120
 4813302\O,2.1837109665,0.0604784474,0.1972841995\O,-2.3515864762,0.201
 2874582,-5.1763427088\O,-1.4707456627,-0.0692965387,4.2876270824\C,-3.
 438902581,0.2237710411,-6.0741372572\H,-4.0601976376,-0.6727104262,-5.
 9591642869\H,-4.0655266685,1.1084645641,-5.9080948686\C,-2.837165918,0
 .2653681609,-7.4629550497\H,-2.2213045667,1.156955972,-7.5973400808\H,
 -2.216244817,-0.6134916702,-7.6482000479\C,-2.3745321774,-0.1032294733
 ,5.3730149763\H,-3.0101695562,-0.995185602,5.3245170505\H,-3.015613827
 5,0.7861371069,5.3756775933\C,-1.5378151762,-0.1369566735,6.6353520404
 \H,-0.8941912683,0.7536504465,6.6787464992\H,-0.8885332791,-1.02447541
 16,6.6274472617\O,-3.9418298036,0.2882664271,-8.3693607812\O,-2.425584
 3437,-0.171148528,7.7228506991\C,-3.6348579843,0.3259825385,-9.6796962
 138\C,-1.7660418538,-0.2044123875,8.9630806976\H,-1.138929968,0.686595
 3366,9.1065493357\H,-2.5315419822,-0.2293200291,9.7385002695\H,-1.1327
 084927,-1.0977866012,9.0553853101\C,-4.8774454961,0.3475391134,-10.523
 7485021\H,-4.6001622075,0.373658636,-11.5751095362\H,-5.4809624765,-0.
 5385097026,-10.3172725423\H,-5.4793284303,1.223442305,-10.2735776313\O
 ,-2.5053803191,0.3400251627,-10.0879089481\C,1.2824613026,5.7256905583
 ,-0.9053626801\C,2.368734096,4.9650131346,-0.4601043947\C,3.576609648,
 5.5981106607,-0.1768591813\C,3.6593958356,6.9723389892,-0.3475383247\C
 ,2.5564152909,7.709700756,-0.793995179\C,1.343667105,7.097017272,-1.08
 19517007\H,4.4324498406,5.0298445183,0.1691991291\H,4.589698628,7.4850
 589525,-0.1330042759\H,2.6495205032,8.7824569221,-0.9186953836\H,0.484
 1417844,7.6568846832,-1.4279893107\C,2.604309082,-7.5162689231,-1.2338
 756478\C,3.7027117314,-6.7989973768,-0.7453830225\C,3.6113194148,-5.43
 74638887,-0.4956589246\C,2.3994326964,-4.7966775325,-0.7420854387\C,1.
 3178841478,-5.5371884786,-1.23073089\C,1.3876808911,-6.8956184336,-1.4
 861970742\H,2.7041333867,-8.5794280579,-1.4202944467\H,4.636260015,-7.
 3173888361,-0.5606459836\H,4.46363179,-4.8847571214,-0.1172098988\H,0.
 5316325507,-7.4399646755,-1.8641468632\O,0.1811239424,4.9531445051,-1.
 1364945438\O,0.2116764106,-4.7595196125,-1.4170831221\\Version=ES64L-G
 16RevC.01\State=1-A\HF=-2297.5821008\RMSD=4.075e-09\RMSF=2.402e-06\Dip
 ole=-0.761166,-0.0220549,0.7332809\Quadrupole=10.9787975,-3.1965982,-7
 .7821992,-0.6208347,22.8949441,0.1849386\PG=C01 [X(C44H32O8)]\\@
 The archive entry for this job was punched.


 The cat could very well be man's best friend
 but would never stoop to admitting it.
                               -- Doug Larson
 Job cpu time:       9 days  9 hours  2 minutes 45.9 seconds.
 Elapsed time:       9 days 10 hours  2 minutes 14.9 seconds.
 File lengths (MBytes):  RWF=   1217 Int=      0 D2E=      0 Chk=    155 Scr=      1
 Normal termination of Gaussian 16 at Mon Nov  3 11:11:57 2025.
