 Entering Gaussian System, Link 0=g16
 Initial command:
 /home/psl/g16/l1.exe "/home/psl/g16/scratch/Gau-433303.inp" -scrdir="/home/psl/g16/scratch/"
 Entering Link 1 = /home/psl/g16/l1.exe PID=    433305.
  
 Copyright (c) 1988-2019, Gaussian, Inc.  All Rights Reserved.
  
 This is part of the Gaussian(R) 16 program.  It is based on
 the Gaussian(R) 09 system (copyright 2009, Gaussian, Inc.),
 the Gaussian(R) 03 system (copyright 2003, Gaussian, Inc.),
 the Gaussian(R) 98 system (copyright 1998, Gaussian, Inc.),
 the Gaussian(R) 94 system (copyright 1995, Gaussian, Inc.),
 the Gaussian 92(TM) system (copyright 1992, Gaussian, Inc.),
 the Gaussian 90(TM) system (copyright 1990, Gaussian, Inc.),
 the Gaussian 88(TM) system (copyright 1988, Gaussian, Inc.),
 the Gaussian 86(TM) system (copyright 1986, Carnegie Mellon
 University), and the Gaussian 82(TM) system (copyright 1983,
 Carnegie Mellon University). Gaussian is a federally registered
 trademark of Gaussian, Inc.
  
 This software contains proprietary and confidential information,
 including trade secrets, belonging to Gaussian, Inc.
  
 This software is provided under written license and may be
 used, copied, transmitted, or stored only in accord with that
 written license.
  
 The following legend is applicable only to US Government
 contracts under FAR:
  
                    RESTRICTED RIGHTS LEGEND
  
 Use, reproduction and disclosure by the US Government is
 subject to restrictions as set forth in subparagraphs (a)
 and (c) of the Commercial Computer Software - Restricted
 Rights clause in FAR 52.227-19.
  
 Gaussian, Inc.
 340 Quinnipiac St., Bldg. 40, Wallingford CT 06492
  
  
 ---------------------------------------------------------------
 Warning -- This program may not be used in any manner that
 competes with the business of Gaussian, Inc. or will provide
 assistance to any competitor of Gaussian, Inc.  The licensee
 of this program is prohibited from giving any competitor of
 Gaussian, Inc. access to this program.  By using this program,
 the user acknowledges that Gaussian, Inc. is engaged in the
 business of creating and licensing software in the field of
 computational chemistry and represents and warrants to the
 licensee that it is not a competitor of Gaussian, Inc. and that
 it will not use this program in any manner prohibited above.
 ---------------------------------------------------------------
  

 Cite this work as:
 Gaussian 16, Revision C.01,
 M. J. Frisch, G. W. Trucks, H. B. Schlegel, G. E. Scuseria, 
 M. A. Robb, J. R. Cheeseman, G. Scalmani, V. Barone, 
 G. A. Petersson, H. Nakatsuji, X. Li, M. Caricato, A. V. Marenich, 
 J. Bloino, B. G. Janesko, R. Gomperts, B. Mennucci, H. P. Hratchian, 
 J. V. Ortiz, A. F. Izmaylov, J. L. Sonnenberg, D. Williams-Young, 
 F. Ding, F. Lipparini, F. Egidi, J. Goings, B. Peng, A. Petrone, 
 T. Henderson, D. Ranasinghe, V. G. Zakrzewski, J. Gao, N. Rega, 
 G. Zheng, W. Liang, M. Hada, M. Ehara, K. Toyota, R. Fukuda, 
 J. Hasegawa, M. Ishida, T. Nakajima, Y. Honda, O. Kitao, H. Nakai, 
 T. Vreven, K. Throssell, J. A. Montgomery, Jr., J. E. Peralta, 
 F. Ogliaro, M. J. Bearpark, J. J. Heyd, E. N. Brothers, K. N. Kudin, 
 V. N. Staroverov, T. A. Keith, R. Kobayashi, J. Normand, 
 K. Raghavachari, A. P. Rendell, J. C. Burant, S. S. Iyengar, 
 J. Tomasi, M. Cossi, J. M. Millam, M. Klene, C. Adamo, R. Cammi, 
 J. W. Ochterski, R. L. Martin, K. Morokuma, O. Farkas, 
 J. B. Foresman, and D. J. Fox, Gaussian, Inc., Wallingford CT, 2019.
 
 ******************************************
 Gaussian 16:  ES64L-G16RevC.01  3-Jul-2019
                23-Oct-2025 
 ******************************************
 %nprocshared=1
 Will use up to    1 processors via shared memory.
 %mem=4GB
 %chk=FX_EN_WB97XD_6-311++GDP_G_251023.chk
 ----------------------------------------------------------
 # wb97xd/6-311++g(d,p) geom=connectivity polar cphf=rdfreq
 ----------------------------------------------------------
 1/38=1,57=2,83=1,172=1/1;
 2/12=2,17=6,18=5,40=1/2;
 3/5=4,6=6,7=1111,11=2,25=1,30=1,74=-58/1,2,3;
 4//1;
 5/5=2,38=5,98=1/2;
 8/6=4,10=90,11=11/1;
 10/6=1,13=10,72=3/2;
 6/7=2,8=2,9=2,10=2,28=1/1;
 99/5=1,9=1/99;
 -------------------
 Title Card Required
 -------------------
 Symbolic Z-matrix:
 Charge =  0 Multiplicity = 1
 C                    -3.0206   -2.47059   0.0005 
 C                    -1.65817  -2.76659   0.00026 
 C                    -0.73356  -1.73567   0.00011 
 C                    -1.1795   -0.40835   0.0002 
 C                    -2.51997  -0.09778   0.00043 
 C                    -3.44961  -1.14176   0.00058 
 H                    -3.73586  -3.28235   0.00065 
 H                    -1.33822  -3.80309   0.0002 
 H                    -2.87207   0.92768   0.0005 
 C                     0.73473  -1.73544  -0.00017 
 C                     1.18025  -0.40798  -0.00024 
 C                     1.65965  -2.76607  -0.00034 
 C                     2.52063  -0.097    -0.00046 
 C                     3.022    -2.46966  -0.00058 
 H                     1.34002  -3.80268  -0.0003 
 C                     3.4506   -1.1407   -0.00063 
 H                     2.8724    0.92857  -0.0005 
 H                     3.73749  -3.2812   -0.00075 
 C                     0.00025   0.56375  -0.00001 
 C                     0.00022   1.42788   1.25058 
 C                    -0.00211   2.81419   1.1789 
 C                     0.00217   0.8376    2.51705 
 C                    -0.00252   3.59891   2.33182 
 C                     0.00179   1.60093   3.66985 
 H                     0.00401  -0.24566   2.5836 
 C                    -0.0006    2.99241   3.57334 
 H                    -0.00435   4.67688   2.22421 
 H                     0.00332   1.11908   4.64023 
 H                    -0.00092   3.60297   4.469 
 C                    -0.00024   1.42791  -1.25057 
 C                     0.00124   0.83766  -2.51706 
 C                    -0.00255   2.81421  -1.17886 
 C                     0.00043   1.60102  -3.66984 
 H                     0.00306  -0.24561  -2.58363 
 C                    -0.00339   3.59896  -2.33176 
 C                    -0.00193   2.99249  -3.57329 
 H                     0.00161   1.11919  -4.64023 
 H                    -0.00518   4.67693  -2.22413 
 H                    -0.00258   3.60307  -4.46894 
 O                    -0.00416   3.50332   0.00003 
 O                    -4.75385  -0.76363   0.00086 
 O                     4.75472  -0.76216  -0.0009 
 C                    -5.75145  -1.76318   0.00038 
 H                    -5.67053  -2.39717  -0.89061 
 H                    -5.67119  -2.39741   0.89126 
 C                    -7.08684  -1.04783   0.00001 
 H                    -7.15538  -0.41033   0.88977 
 H                    -7.15479  -0.41015  -0.88967 
 C                     5.75264  -1.7614   -0.00039 
 H                     5.67261  -2.39565  -0.89128 
 H                     5.67187  -2.39543   0.89059 
 C                     7.0878   -1.04564   0.00005 
 H                     7.15552  -0.40795   0.88973 
 H                     7.15618  -0.40811  -0.8897 
 O                    -8.08302  -2.05327  -0.00044 
 H                    -8.94483  -1.63801  -0.00035 
 O                     8.08429  -2.05077   0.00052 
 H                     8.94597  -1.63525   0.00045 
 
 Using perturbation frequencies:    0.000000    0.069425    0.077318    0.077541    0.093732
 Stoichiometry    C29H24O5
 Framework group  C1[X(C29H24O5)]
 Deg. of freedom   168
 Full point group                 C1      NOp   1
 Largest Abelian subgroup         C1      NOp   1
 Largest concise Abelian subgroup C1      NOp   1
                         Standard orientation:                         
 ---------------------------------------------------------------------
 Center     Atomic      Atomic             Coordinates (Angstroms)
 Number     Number       Type             X           Y           Z
 ---------------------------------------------------------------------
      1          6           0       -3.020604   -2.470593    0.000504
      2          6           0       -1.658165   -2.766586    0.000259
      3          6           0       -0.733562   -1.735670    0.000106
      4          6           0       -1.179495   -0.408352    0.000202
      5          6           0       -2.519966   -0.097778    0.000434
      6          6           0       -3.449612   -1.141763    0.000580
      7          1           0       -3.735857   -3.282350    0.000653
      8          1           0       -1.338216   -3.803093    0.000200
      9          1           0       -2.872067    0.927681    0.000495
     10          6           0        0.734725   -1.735438   -0.000165
     11          6           0        1.180245   -0.407982   -0.000235
     12          6           0        1.659649   -2.766072   -0.000340
     13          6           0        2.520626   -0.097003   -0.000459
     14          6           0        3.021996   -2.469661   -0.000578
     15          1           0        1.340017   -3.802676   -0.000300
     16          6           0        3.450597   -1.140698   -0.000627
     17          1           0        2.872400    0.928566   -0.000499
     18          1           0        3.737490   -3.281204   -0.000745
     19          6           0        0.000245    0.563754   -0.000006
     20          6           0        0.000219    1.427884    1.250580
     21          6           0       -0.002108    2.814186    1.178902
     22          6           0        0.002173    0.837600    2.517051
     23          6           0       -0.002523    3.598911    2.331820
     24          6           0        0.001788    1.600934    3.669849
     25          1           0        0.004013   -0.245664    2.583602
     26          6           0       -0.000596    2.992408    3.573336
     27          1           0       -0.004348    4.676883    2.224213
     28          1           0        0.003324    1.119081    4.640229
     29          1           0       -0.000917    3.602965    4.469001
     30          6           0       -0.000243    1.427912   -1.250572
     31          6           0        0.001243    0.837657   -2.517057
     32          6           0       -0.002547    2.814212   -1.178862
     33          6           0        0.000427    1.601017   -3.669837
     34          1           0        0.003063   -0.245605   -2.583633
     35          6           0       -0.003392    3.598964   -2.331761
     36          6           0       -0.001925    2.992490   -3.573291
     37          1           0        0.001607    1.119187   -4.640229
     38          1           0       -0.005180    4.676933   -2.224128
     39          1           0       -0.002579    3.603066   -4.468942
     40          8           0       -0.004163    3.503322    0.000028
     41          8           0       -4.753850   -0.763627    0.000862
     42          8           0        4.754719   -0.762159   -0.000904
     43          6           0       -5.751453   -1.763181    0.000383
     44          1           0       -5.670530   -2.397171   -0.890606
     45          1           0       -5.671188   -2.397410    0.891264
     46          6           0       -7.086841   -1.047828    0.000010
     47          1           0       -7.155381   -0.410334    0.889772
     48          1           0       -7.154791   -0.410151   -0.889665
     49          6           0        5.752635   -1.761403   -0.000391
     50          1           0        5.672608   -2.395649   -0.891282
     51          1           0        5.671870   -2.395427    0.890588
     52          6           0        7.087802   -1.045638    0.000047
     53          1           0        7.155519   -0.407951    0.889733
     54          1           0        7.156184   -0.408113   -0.889704
     55          8           0       -8.083022   -2.053265   -0.000435
     56          1           0       -8.944831   -1.638008   -0.000348
     57          8           0        8.084289   -2.050772    0.000522
     58          1           0        8.945972   -1.635254    0.000453
 ---------------------------------------------------------------------
 Rotational constants (GHZ):           0.1692253           0.0699488           0.0630286
 Standard basis: 6-311++G(d,p) (5D, 7F)
 There are   950 symmetry adapted cartesian basis functions of A   symmetry.
 There are   916 symmetry adapted basis functions of A   symmetry.
   916 basis functions,  1440 primitive gaussians,   950 cartesian basis functions
   119 alpha electrons      119 beta electrons
       nuclear repulsion energy      3377.8325812333 Hartrees.
 NAtoms=   58 NActive=   58 NUniq=   58 SFac= 1.00D+00 NAtFMM=   60 NAOKFM=F Big=F
 Integral buffers will be    131072 words long.
 Raffenetti 2 integral format.
 Two-electron integral symmetry is turned on.
 Nuclear repulsion after empirical dispersion term =     3377.7843107888 Hartrees.
 One-electron integrals computed using PRISM.
 NBasis=   916 RedAO= T EigKep=  1.59D-06  NBF=   916
 NBsUse=   899 1.00D-06 EigRej=  7.68D-07 NBFU=   899
 ExpMin= 3.60D-02 ExpMax= 8.59D+03 ExpMxC= 1.30D+03 IAcc=3 IRadAn=         5 AccDes= 0.00D+00
 Harris functional with IExCor= 4639 and IRadAn=       5 diagonalized for initial guess.
 HarFok:  IExCor= 4639 AccDes= 0.00D+00 IRadAn=         5 IDoV= 1 UseB2=F ITyADJ=14
 ICtDFT=  3500011 ScaDFX=  1.000000  1.000000  1.000000  1.000000
 FoFCou: FMM=F IPFlag=           0 FMFlag=      100000 FMFlg1=           0
         NFxFlg=           0 DoJE=T BraDBF=F KetDBF=T FulRan=T
         wScrn=  0.000000 ICntrl=       500 IOpCl=  0 I1Cent=   200000004 NGrid=           0
         NMat0=    1 NMatS0=      1 NMatT0=    0 NMatD0=    1 NMtDS0=    0 NMtDT0=    0
 Petite list used in FoFCou.
 Requested convergence on RMS density matrix=1.00D-08 within 128 cycles.
 Requested convergence on MAX density matrix=1.00D-06.
 Requested convergence on             energy=1.00D-06.
 No special actions if energy rises.
 SCF Done:  E(RwB97XD) =  -1495.53712143     A.U. after   17 cycles
            NFock= 17  Conv=0.44D-08     -V/T= 2.0039
 DoSCS=F DFT=T ScalE2(SS,OS)=  1.000000  1.000000
 Range of M.O.s used for correlation:     1   899
 NBasis=   916 NAE=   119 NBE=   119 NFC=     0 NFV=     0
 NROrb=    899 NOA=   119 NOB=   119 NVA=   780 NVB=   780

 **** Warning!!: The largest alpha MO coefficient is  0.14588456D+03

          Differentiating once with respect to electric field.
                with respect to dipole field.
          Electric field/nuclear overlap derivatives assumed to be zero.
          There are    15 degrees of freedom in the 1st order CPHF.  IDoFFX=0 NUNeed=    15.
 LinEq1:  Iter=  0 NonCon=    15 RMS=5.03D-02 Max=9.90D+00 NDo=    15
 AX will form    15 AO Fock derivatives at one time.
 LinEq1:  Iter=  1 NonCon=    15 RMS=2.65D-02 Max=2.07D+00 NDo=    15
 LinEq1:  Iter=  2 NonCon=    15 RMS=1.29D-02 Max=2.23D+00 NDo=    15
 LinEq1:  Iter=  3 NonCon=    15 RMS=7.59D-03 Max=1.09D+00 NDo=    15
 LinEq1:  Iter=  4 NonCon=    15 RMS=4.36D-03 Max=3.98D-01 NDo=    15
 LinEq1:  Iter=  5 NonCon=    15 RMS=1.67D-03 Max=2.07D-01 NDo=    15
 LinEq1:  Iter=  6 NonCon=    15 RMS=1.39D-03 Max=1.75D-01 NDo=    15
 LinEq1:  Iter=  7 NonCon=    15 RMS=7.25D-04 Max=8.27D-02 NDo=    15
 LinEq1:  Iter=  8 NonCon=    15 RMS=4.24D-04 Max=3.57D-02 NDo=    15
 LinEq1:  Iter=  9 NonCon=    15 RMS=1.92D-04 Max=1.69D-02 NDo=    15
 LinEq1:  Iter= 10 NonCon=    15 RMS=1.06D-04 Max=9.50D-03 NDo=    15
 LinEq1:  Iter= 11 NonCon=    15 RMS=4.34D-05 Max=4.31D-03 NDo=    15
 LinEq1:  Iter= 12 NonCon=    15 RMS=2.18D-05 Max=2.07D-03 NDo=    15
 LinEq1:  Iter= 13 NonCon=    15 RMS=1.11D-05 Max=9.05D-04 NDo=    15
 LinEq1:  Iter= 14 NonCon=    15 RMS=5.74D-06 Max=6.55D-04 NDo=    15
 LinEq1:  Iter= 15 NonCon=    15 RMS=2.88D-06 Max=3.17D-04 NDo=    15
 LinEq1:  Iter= 16 NonCon=    15 RMS=1.28D-06 Max=9.58D-05 NDo=    15
 LinEq1:  Iter= 17 NonCon=    15 RMS=6.79D-07 Max=5.18D-05 NDo=    15
 LinEq1:  Iter= 18 NonCon=    15 RMS=3.11D-07 Max=1.85D-05 NDo=    15
 LinEq1:  Iter= 19 NonCon=    14 RMS=2.02D-07 Max=1.68D-05 NDo=    15
 LinEq1:  Iter= 20 NonCon=    14 RMS=7.60D-08 Max=4.98D-06 NDo=    15
 LinEq1:  Iter= 21 NonCon=    14 RMS=3.32D-08 Max=1.71D-06 NDo=    15
 LinEq1:  Iter= 22 NonCon=    13 RMS=1.51D-08 Max=8.24D-07 NDo=    15
 LinEq1:  Iter= 23 NonCon=     8 RMS=4.85D-09 Max=3.39D-07 NDo=    15
 LinEq1:  Iter= 24 NonCon=     2 RMS=2.85D-09 Max=2.04D-07 NDo=     8
 LinEq1:  Iter= 25 NonCon=     1 RMS=1.12D-09 Max=1.16D-07 NDo=     2
 LinEq1:  Iter= 26 NonCon=     0 RMS=5.85D-10 Max=5.62D-08 NDo=     1
 Linear equations converged to 1.000D-08 1.000D-07 after    26 iterations.
 Isotropic polarizability for W=    0.000000      357.98 Bohr**3.
 Isotropic polarizability for W=    0.069425      374.66 Bohr**3.
 Isotropic polarizability for W=    0.077318      379.24 Bohr**3.
 Isotropic polarizability for W=    0.077541      379.38 Bohr**3.
 Isotropic polarizability for W=    0.093732      391.55 Bohr**3.
 End of Minotr F.D. properties on file   721 Mask=      11 NFrqRd=     5 NDeriv=     1 ND12= 1 LenFil=     142:
 Frequencies=    0.000000    0.069425    0.077318    0.077541    0.093732
 Property number 1 -- Alpha(-w,w) frequency  1    0.000000:
                 1             2             3 
      1   0.406868D+03 -0.798103D-01  0.135949D-02
      2  -0.798103D-01  0.357730D+03  0.425348D-03
      3   0.135949D-02  0.425348D-03  0.309343D+03
 Property number 1 -- Alpha(-w,w) frequency  2    0.069425:
                 1             2             3 
      1   0.431421D+03 -0.814592D-01  0.360030D-03
      2  -0.814592D-01  0.371531D+03  0.445847D-03
      3   0.360030D-03  0.445847D-03  0.321026D+03
 Property number 1 -- Alpha(-w,w) frequency  3    0.077318:
                 1             2             3 
      1   0.438394D+03 -0.817984D-01  0.374765D-04
      2  -0.817984D-01  0.375198D+03  0.451455D-03
      3   0.374765D-04  0.451455D-03  0.324119D+03
 Property number 1 -- Alpha(-w,w) frequency  4    0.077541:
                 1             2             3 
      1   0.438611D+03 -0.818081D-01  0.271922D-04
      2  -0.818081D-01  0.375310D+03  0.451627D-03
      3   0.271922D-04  0.451627D-03  0.324214D+03
 Property number 1 -- Alpha(-w,w) frequency  5    0.093732:
                 1             2             3 
      1   0.457694D+03 -0.824615D-01 -0.943197D-03
      2  -0.824615D-01  0.384778D+03  0.466546D-03
      3  -0.943197D-03  0.466546D-03  0.332170D+03
 Property number 5 -- Beta(-w,w,0) frequency  1    0.000000:
                 1 
      1   0.438702D+00
      2  -0.120504D+03
      3   0.475174D-01
      4  -0.241463D-02
      5   0.232659D-02
      6   0.206847D+00
      7  -0.120504D+03
      8   0.475174D-01
      9   0.617751D+02
     10   0.232659D-02
     11   0.190105D-02
     12  -0.126521D+03
     13  -0.241463D-02
     14   0.232659D-02
     15   0.190105D-02
     16   0.206847D+00
     17  -0.126521D+03
     18  -0.406157D-02
 Property number 5 -- Beta(-w,w,0) frequency  2    0.069425:
                 1 
      1   0.610151D+00
      2  -0.138656D+03
      3   0.710115D-01
      4  -0.299028D-02
      5   0.600142D-02
      6   0.242704D+00
      7  -0.170370D+03
      8   0.579213D-01
      9   0.762849D+02
     10   0.816746D-02
     11   0.213800D-02
     12  -0.147928D+03
     13  -0.337517D-02
     14   0.592639D-02
     15   0.192712D-02
     16   0.218778D+00
     17  -0.135322D+03
     18  -0.439943D-02
 Property number 5 -- Beta(-w,w,0) frequency  3    0.077318:
                 1 
      1   0.669250D+00
      2  -0.144411D+03
      3   0.777851D-01
      4  -0.316771D-02
      5   0.735600D-02
      6   0.253204D+00
      7  -0.188536D+03
      8   0.600734D-01
      9   0.809255D+02
     10   0.104508D-01
     11   0.220375D-02
     12  -0.154136D+03
     13  -0.370726D-02
     14   0.728460D-02
     15   0.191865D-02
     16   0.221067D+00
     17  -0.137101D+03
     18  -0.448044D-02
 Property number 5 -- Beta(-w,w,0) frequency  4    0.077541:
                 1 
      1   0.671166D+00
      2  -0.144595D+03
      3   0.779950D-01
      4  -0.317333D-02
      5   0.740037D-02
      6   0.253531D+00
      7  -0.189132D+03
      8   0.601330D-01
      9   0.810733D+02
     10   0.105268D-01
     11   0.220578D-02
     12  -0.154329D+03
     13  -0.371805D-02
     14   0.732934D-02
     15   0.191827D-02
     16   0.221130D+00
     17  -0.137151D+03
     18  -0.448285D-02
 Property number 5 -- Beta(-w,w,0) frequency  5    0.093732:
                 1 
      1   0.861084D+00
      2  -0.162185D+03
      3   0.962398D-01
      4  -0.369479D-02
      5   0.118836D-01
      6   0.282595D+00
      7  -0.250542D+03
      8   0.633830D-01
      9   0.949819D+02
     10   0.185702D-01
     11   0.238114D-02
     12  -0.171453D+03
     13  -0.479610D-02
     14   0.119242D-01
     15   0.185925D-02
     16   0.224560D+00
     17  -0.140246D+03
     18  -0.466668D-02
 End of Minotr F.D. properties file   722 does not exist.
 End of Minotr F.D. properties file   788 does not exist.

 **********************************************************************

            Population analysis using the SCF Density.

 **********************************************************************

 Orbital symmetries:
       Occupied  (A) (A) (A) (A) (A) (A) (A) (A) (A) (A) (A) (A)
                 (A) (A) (A) (A) (A) (A) (A) (A) (A) (A) (A) (A)
                 (A) (A) (A) (A) (A) (A) (A) (A) (A) (A) (A) (A)
                 (A) (A) (A) (A) (A) (A) (A) (A) (A) (A) (A) (A)
                 (A) (A) (A) (A) (A) (A) (A) (A) (A) (A) (A) (A)
                 (A) (A) (A) (A) (A) (A) (A) (A) (A) (A) (A) (A)
                 (A) (A) (A) (A) (A) (A) (A) (A) (A) (A) (A) (A)
                 (A) (A) (A) (A) (A) (A) (A) (A) (A) (A) (A) (A)
                 (A) (A) (A) (A) (A) (A) (A) (A) (A) (A) (A) (A)
                 (A) (A) (A) (A) (A) (A) (A) (A) (A) (A) (A)
       Virtual   (A) (A) (A) (A) (A) (A) (A) (A) (A) (A) (A) (A)
                 (A) (A) (A) (A) (A) (A) (A) (A) (A) (A) (A) (A)
                 (A) (A) (A) (A) (A) (A) (A) (A) (A) (A) (A) (A)
                 (A) (A) (A) (A) (A) (A) (A) (A) (A) (A) (A) (A)
                 (A) (A) (A) (A) (A) (A) (A) (A) (A) (A) (A) (A)
                 (A) (A) (A) (A) (A) (A) (A) (A) (A) (A) (A) (A)
                 (A) (A) (A) (A) (A) (A) (A) (A) (A) (A) (A) (A)
                 (A) (A) (A) (A) (A) (A) (A) (A) (A) (A) (A) (A)
                 (A) (A) (A) (A) (A) (A) (A) (A) (A) (A) (A) (A)
                 (A) (A) (A) (A) (A) (A) (A) (A) (A) (A) (A) (A)
                 (A) (A) (A) (A) (A) (A) (A) (A) (A) (A) (A) (A)
                 (A) (A) (A) (A) (A) (A) (A) (A) (A) (A) (A) (A)
                 (A) (A) (A) (A) (A) (A) (A) (A) (A) (A) (A) (A)
                 (A) (A) (A) (A) (A) (A) (A) (A) (A) (A) (A) (A)
                 (A) (A) (A) (A) (A) (A) (A) (A) (A) (A) (A) (A)
                 (A) (A) (A) (A) (A) (A) (A) (A) (A) (A) (A) (A)
                 (A) (A) (A) (A) (A) (A) (A) (A) (A) (A) (A) (A)
                 (A) (A) (A) (A) (A) (A) (A) (A) (A) (A) (A) (A)
                 (A) (A) (A) (A) (A) (A) (A) (A) (A) (A) (A) (A)
                 (A) (A) (A) (A) (A) (A) (A) (A) (A) (A) (A) (A)
                 (A) (A) (A) (A) (A) (A) (A) (A) (A) (A) (A) (A)
                 (A) (A) (A) (A) (A) (A) (A) (A) (A) (A) (A) (A)
                 (A) (A) (A) (A) (A) (A) (A) (A) (A) (A) (A) (A)
                 (A) (A) (A) (A) (A) (A) (A) (A) (A) (A) (A) (A)
                 (A) (A) (A) (A) (A) (A) (A) (A) (A) (A) (A) (A)
                 (A) (A) (A) (A) (A) (A) (A) (A) (A) (A) (A) (A)
                 (A) (A) (A) (A) (A) (A) (A) (A) (A) (A) (A) (A)
                 (A) (A) (A) (A) (A) (A) (A) (A) (A) (A) (A) (A)
                 (A) (A) (A) (A) (A) (A) (A) (A) (A) (A) (A) (A)
                 (A) (A) (A) (A) (A) (A) (A) (A) (A) (A) (A) (A)
                 (A) (A) (A) (A) (A) (A) (A) (A) (A) (A) (A) (A)
                 (A) (A) (A) (A) (A) (A) (A) (A) (A) (A) (A) (A)
                 (A) (A) (A) (A) (A) (A) (A) (A) (A) (A) (A) (A)
                 (A) (A) (A) (A) (A) (A) (A) (A) (A) (A) (A) (A)
                 (A) (A) (A) (A) (A) (A) (A) (A) (A) (A) (A) (A)
                 (A) (A) (A) (A) (A) (A) (A) (A) (A) (A) (A) (A)
                 (A) (A) (A) (A) (A) (A) (A) (A) (A) (A) (A) (A)
                 (A) (A) (A) (A) (A) (A) (A) (A) (A) (A) (A) (A)
                 (A) (A) (A) (A) (A) (A) (A) (A) (A) (A) (A) (A)
                 (A) (A) (A) (A) (A) (A) (A) (A) (A) (A) (A) (A)
                 (A) (A) (A) (A) (A) (A) (A) (A) (A) (A) (A) (A)
                 (A) (A) (A) (A) (A) (A) (A) (A) (A) (A) (A) (A)
                 (A) (A) (A) (A) (A) (A) (A) (A) (A) (A) (A) (A)
                 (A) (A) (A) (A) (A) (A) (A) (A) (A) (A) (A) (A)
                 (A) (A) (A) (A) (A) (A) (A) (A) (A) (A) (A) (A)
                 (A) (A) (A) (A) (A) (A) (A) (A) (A) (A) (A) (A)
                 (A) (A) (A) (A) (A) (A) (A) (A) (A) (A) (A) (A)
                 (A) (A) (A) (A) (A) (A) (A) (A) (A) (A) (A) (A)
                 (A) (A) (A) (A) (A) (A) (A) (A) (A) (A) (A) (A)
                 (A) (A) (A) (A) (A) (A) (A) (A) (A) (A) (A) (A)
                 (A) (A) (A) (A) (A) (A) (A) (A) (A) (A) (A) (A)
                 (A) (A) (A) (A) (A) (A) (A) (A) (A) (A) (A) (A)
                 (A) (A) (A) (A) (A) (A) (A) (A) (A) (A) (A) (A)
                 (A) (A) (A) (A) (A) (A) (A) (A) (A) (A) (A) (A)
                 (A) (A) (A) (A) (A) (A) (A) (A) (A) (A) (A) (A)
                 (A) (A) (A) (A) (A) (A) (A) (A) (A) (A) (A) (A)
                 (A) (A) (A) (A) (A) (A) (A) (A) (A) (A) (A) (A)
                 (A) (A) (A) (A) (A) (A) (A) (A) (A) (A) (A) (A)
                 (A) (A) (A) (A) (A) (A) (A) (A) (A) (A) (A) (A)
                 (A) (A) (A) (A) (A) (A) (A) (A) (A) (A) (A) (A)
                 (A) (A) (A) (A) (A) (A) (A) (A) (A) (A) (A) (A)
                 (A) (A) (A) (A) (A) (A) (A) (A) (A) (A) (A) (A)
                 (A) (A) (A) (A) (A) (A) (A) (A) (A) (A) (A) (A)
                 (A) (A) (A) (A) (A) (A) (A) (A) (A) (A) (A) (A)
                 (A) (A) (A) (A) (A) (A) (A) (A) (A) (A) (A) (A)
 The electronic state is 1-A.
 Alpha  occ. eigenvalues --  -19.29830 -19.28234 -19.28233 -19.25969 -19.25968
 Alpha  occ. eigenvalues --  -10.35365 -10.35364 -10.35220 -10.35218 -10.34180
 Alpha  occ. eigenvalues --  -10.34179 -10.33865 -10.33864 -10.32559 -10.30169
 Alpha  occ. eigenvalues --  -10.30169 -10.29613 -10.29613 -10.29410 -10.29409
 Alpha  occ. eigenvalues --  -10.29098 -10.29091 -10.29091 -10.29064 -10.28967
 Alpha  occ. eigenvalues --  -10.28967 -10.28920 -10.28919 -10.28752 -10.28752
 Alpha  occ. eigenvalues --  -10.28489 -10.28488 -10.28413 -10.28413  -1.20244
 Alpha  occ. eigenvalues --   -1.18096  -1.18095  -1.14068  -1.14067  -1.00820
 Alpha  occ. eigenvalues --   -0.97211  -0.96254  -0.95563  -0.92052  -0.89439
 Alpha  occ. eigenvalues --   -0.87561  -0.87229  -0.85978  -0.85260  -0.85026
 Alpha  occ. eigenvalues --   -0.84255  -0.83183  -0.80123  -0.78332  -0.74246
 Alpha  occ. eigenvalues --   -0.74094  -0.73697  -0.73603  -0.71683  -0.69423
 Alpha  occ. eigenvalues --   -0.68272  -0.67901  -0.67559  -0.65577  -0.64990
 Alpha  occ. eigenvalues --   -0.64429  -0.62782  -0.61309  -0.59688  -0.59513
 Alpha  occ. eigenvalues --   -0.59487  -0.59483  -0.58889  -0.57474  -0.57273
 Alpha  occ. eigenvalues --   -0.56177  -0.55715  -0.55325  -0.54891  -0.53689
 Alpha  occ. eigenvalues --   -0.53316  -0.52420  -0.52290  -0.52098  -0.51853
 Alpha  occ. eigenvalues --   -0.51527  -0.51134  -0.50867  -0.50512  -0.50118
 Alpha  occ. eigenvalues --   -0.47713  -0.47380  -0.47323  -0.47212  -0.46742
 Alpha  occ. eigenvalues --   -0.46033  -0.45675  -0.45587  -0.44736  -0.44109
 Alpha  occ. eigenvalues --   -0.43617  -0.43228  -0.43070  -0.42510  -0.41963
 Alpha  occ. eigenvalues --   -0.41852  -0.41040  -0.40039  -0.40006  -0.37384
 Alpha  occ. eigenvalues --   -0.37383  -0.35402  -0.33841  -0.33387  -0.32667
 Alpha  occ. eigenvalues --   -0.32578  -0.31379  -0.28850  -0.26811
 Alpha virt. eigenvalues --    0.02972   0.03749   0.03920   0.03959   0.04341
 Alpha virt. eigenvalues --    0.04366   0.04530   0.04541   0.04691   0.05607
 Alpha virt. eigenvalues --    0.05741   0.06072   0.06094   0.06429   0.06469
 Alpha virt. eigenvalues --    0.06759   0.07187   0.07196   0.07270   0.07518
 Alpha virt. eigenvalues --    0.08509   0.08583   0.08981   0.09033   0.09340
 Alpha virt. eigenvalues --    0.09353   0.09754   0.10031   0.10762   0.11097
 Alpha virt. eigenvalues --    0.11196   0.11565   0.12433   0.12665   0.12935
 Alpha virt. eigenvalues --    0.13070   0.13418   0.13954   0.14756   0.14864
 Alpha virt. eigenvalues --    0.14881   0.15034   0.15404   0.15435   0.15498
 Alpha virt. eigenvalues --    0.15920   0.16227   0.16248   0.16257   0.16327
 Alpha virt. eigenvalues --    0.16833   0.17024   0.17101   0.17248   0.17458
 Alpha virt. eigenvalues --    0.17561   0.17869   0.17889   0.18010   0.18189
 Alpha virt. eigenvalues --    0.18537   0.18647   0.18787   0.18824   0.19317
 Alpha virt. eigenvalues --    0.19548   0.19708   0.19745   0.19752   0.19879
 Alpha virt. eigenvalues --    0.20007   0.20412   0.20828   0.20951   0.20985
 Alpha virt. eigenvalues --    0.21089   0.21610   0.21769   0.21885   0.21981
 Alpha virt. eigenvalues --    0.22210   0.22674   0.22831   0.23021   0.23140
 Alpha virt. eigenvalues --    0.23367   0.23503   0.23666   0.24407   0.24615
 Alpha virt. eigenvalues --    0.24934   0.25129   0.25450   0.25665   0.25835
 Alpha virt. eigenvalues --    0.26049   0.26096   0.26212   0.26264   0.26684
 Alpha virt. eigenvalues --    0.26858   0.27074   0.27285   0.27646   0.27725
 Alpha virt. eigenvalues --    0.27728   0.27958   0.28379   0.28511   0.28658
 Alpha virt. eigenvalues --    0.28894   0.29328   0.29459   0.29797   0.29939
 Alpha virt. eigenvalues --    0.30118   0.30121   0.30155   0.30374   0.30419
 Alpha virt. eigenvalues --    0.31242   0.31366   0.31397   0.31654   0.32416
 Alpha virt. eigenvalues --    0.32509   0.32717   0.32820   0.33083   0.33214
 Alpha virt. eigenvalues --    0.33265   0.33492   0.33691   0.33983   0.34444
 Alpha virt. eigenvalues --    0.34532   0.34559   0.34683   0.34687   0.34747
 Alpha virt. eigenvalues --    0.35121   0.35624   0.35834   0.36247   0.36313
 Alpha virt. eigenvalues --    0.36490   0.36562   0.36662   0.37025   0.37322
 Alpha virt. eigenvalues --    0.37475   0.37595   0.37746   0.37849   0.38196
 Alpha virt. eigenvalues --    0.38403   0.38765   0.38772   0.38905   0.38935
 Alpha virt. eigenvalues --    0.39144   0.39626   0.39837   0.40138   0.40860
 Alpha virt. eigenvalues --    0.40997   0.41697   0.41806   0.42110   0.42169
 Alpha virt. eigenvalues --    0.42659   0.42705   0.42739   0.43462   0.43662
 Alpha virt. eigenvalues --    0.43685   0.43696   0.44523   0.44580   0.44660
 Alpha virt. eigenvalues --    0.45333   0.45609   0.46227   0.46243   0.46481
 Alpha virt. eigenvalues --    0.46569   0.47123   0.47374   0.47415   0.48042
 Alpha virt. eigenvalues --    0.48591   0.48715   0.49302   0.49465   0.49543
 Alpha virt. eigenvalues --    0.50043   0.50816   0.51079   0.51809   0.52330
 Alpha virt. eigenvalues --    0.52632   0.53485   0.54002   0.54090   0.54997
 Alpha virt. eigenvalues --    0.55319   0.55456   0.55564   0.55686   0.57703
 Alpha virt. eigenvalues --    0.58146   0.58589   0.59449   0.60085   0.60468
 Alpha virt. eigenvalues --    0.60585   0.61393   0.61762   0.62478   0.63123
 Alpha virt. eigenvalues --    0.63465   0.63474   0.64381   0.64894   0.65014
 Alpha virt. eigenvalues --    0.65109   0.65663   0.65856   0.66654   0.67364
 Alpha virt. eigenvalues --    0.67440   0.67777   0.67980   0.69035   0.69397
 Alpha virt. eigenvalues --    0.69500   0.69609   0.69752   0.69822   0.70360
 Alpha virt. eigenvalues --    0.71006   0.71041   0.71654   0.72294   0.72582
 Alpha virt. eigenvalues --    0.73243   0.73314   0.73907   0.74048   0.74517
 Alpha virt. eigenvalues --    0.74837   0.74921   0.75005   0.75706   0.75927
 Alpha virt. eigenvalues --    0.76270   0.76827   0.76961   0.76998   0.77250
 Alpha virt. eigenvalues --    0.77616   0.77626   0.78300   0.78352   0.78709
 Alpha virt. eigenvalues --    0.79985   0.80321   0.80576   0.80956   0.81320
 Alpha virt. eigenvalues --    0.81467   0.81810   0.81917   0.82746   0.83268
 Alpha virt. eigenvalues --    0.83687   0.83746   0.84139   0.84996   0.85671
 Alpha virt. eigenvalues --    0.85799   0.86052   0.86795   0.87117   0.87273
 Alpha virt. eigenvalues --    0.87772   0.87905   0.88108   0.88346   0.88891
 Alpha virt. eigenvalues --    0.89507   0.90374   0.90976   0.91185   0.91286
 Alpha virt. eigenvalues --    0.91431   0.91843   0.92848   0.92882   0.93833
 Alpha virt. eigenvalues --    0.93981   0.94533   0.94703   0.94785   0.95045
 Alpha virt. eigenvalues --    0.96295   0.96309   0.96637   0.97631   0.98001
 Alpha virt. eigenvalues --    0.98016   0.99163   1.00007   1.00441   1.01233
 Alpha virt. eigenvalues --    1.01599   1.01890   1.02258   1.03797   1.04534
 Alpha virt. eigenvalues --    1.04746   1.05562   1.05862   1.05941   1.06341
 Alpha virt. eigenvalues --    1.06946   1.07157   1.08122   1.08814   1.08841
 Alpha virt. eigenvalues --    1.09107   1.09561   1.10142   1.10253   1.10678
 Alpha virt. eigenvalues --    1.11419   1.11521   1.12179   1.12790   1.13494
 Alpha virt. eigenvalues --    1.13552   1.14316   1.14580   1.14601   1.15107
 Alpha virt. eigenvalues --    1.15872   1.16665   1.17294   1.17519   1.17563
 Alpha virt. eigenvalues --    1.18402   1.18519   1.18884   1.19082   1.19607
 Alpha virt. eigenvalues --    1.19791   1.20091   1.20305   1.20506   1.21284
 Alpha virt. eigenvalues --    1.21575   1.22139   1.22527   1.22985   1.23844
 Alpha virt. eigenvalues --    1.24396   1.24626   1.24778   1.25858   1.27873
 Alpha virt. eigenvalues --    1.28304   1.28730   1.29296   1.31419   1.31846
 Alpha virt. eigenvalues --    1.32381   1.32510   1.33398   1.33527   1.35397
 Alpha virt. eigenvalues --    1.36428   1.36808   1.37357   1.37692   1.39225
 Alpha virt. eigenvalues --    1.39928   1.40345   1.41304   1.41498   1.42142
 Alpha virt. eigenvalues --    1.43298   1.44635   1.44859   1.45311   1.45333
 Alpha virt. eigenvalues --    1.46192   1.47559   1.48819   1.49048   1.49684
 Alpha virt. eigenvalues --    1.50734   1.51609   1.54268   1.55738   1.57059
 Alpha virt. eigenvalues --    1.57222   1.57871   1.60159   1.60356   1.61118
 Alpha virt. eigenvalues --    1.61780   1.62235   1.62554   1.62953   1.63621
 Alpha virt. eigenvalues --    1.63687   1.64160   1.64363   1.64594   1.64961
 Alpha virt. eigenvalues --    1.65465   1.65952   1.66064   1.66218   1.66558
 Alpha virt. eigenvalues --    1.66714   1.67823   1.68002   1.68149   1.68574
 Alpha virt. eigenvalues --    1.69240   1.69875   1.69993   1.71290   1.71691
 Alpha virt. eigenvalues --    1.72313   1.72967   1.73201   1.73238   1.73520
 Alpha virt. eigenvalues --    1.74083   1.74224   1.74631   1.75131   1.75491
 Alpha virt. eigenvalues --    1.75684   1.75757   1.76299   1.77038   1.77405
 Alpha virt. eigenvalues --    1.78545   1.78829   1.79173   1.80454   1.80487
 Alpha virt. eigenvalues --    1.81040   1.81990   1.83132   1.83882   1.84555
 Alpha virt. eigenvalues --    1.85747   1.86153   1.86539   1.87627   1.88536
 Alpha virt. eigenvalues --    1.88588   1.89645   1.89797   1.89925   1.90021
 Alpha virt. eigenvalues --    1.90862   1.91173   1.91766   1.92120   1.93473
 Alpha virt. eigenvalues --    1.95060   1.95714   1.96670   1.97634   1.98094
 Alpha virt. eigenvalues --    1.98124   1.98300   1.99633   1.99959   2.00171
 Alpha virt. eigenvalues --    2.00403   2.00759   2.01664   2.01679   2.02455
 Alpha virt. eigenvalues --    2.03898   2.04761   2.05089   2.05612   2.05687
 Alpha virt. eigenvalues --    2.06683   2.06885   2.07022   2.07831   2.08652
 Alpha virt. eigenvalues --    2.09039   2.09499   2.09801   2.10073   2.10403
 Alpha virt. eigenvalues --    2.10805   2.12820   2.13544   2.13648   2.13816
 Alpha virt. eigenvalues --    2.13938   2.14821   2.16016   2.16368   2.18618
 Alpha virt. eigenvalues --    2.19532   2.19715   2.20214   2.20315   2.21711
 Alpha virt. eigenvalues --    2.21795   2.22148   2.22824   2.22870   2.24076
 Alpha virt. eigenvalues --    2.24434   2.25803   2.26313   2.29296   2.29561
 Alpha virt. eigenvalues --    2.30377   2.31000   2.34173   2.34394   2.35024
 Alpha virt. eigenvalues --    2.35419   2.35864   2.36425   2.36683   2.39748
 Alpha virt. eigenvalues --    2.40514   2.41039   2.42120   2.43541   2.43574
 Alpha virt. eigenvalues --    2.44275   2.44460   2.46101   2.46328   2.47189
 Alpha virt. eigenvalues --    2.48579   2.50256   2.50530   2.51474   2.53009
 Alpha virt. eigenvalues --    2.54095   2.54707   2.55576   2.55615   2.56708
 Alpha virt. eigenvalues --    2.58044   2.58277   2.58606   2.59748   2.59756
 Alpha virt. eigenvalues --    2.61979   2.62580   2.63621   2.63841   2.64771
 Alpha virt. eigenvalues --    2.65090   2.66855   2.66885   2.68878   2.69374
 Alpha virt. eigenvalues --    2.70503   2.71044   2.72177   2.72813   2.73993
 Alpha virt. eigenvalues --    2.75742   2.76213   2.76285   2.78275   2.79420
 Alpha virt. eigenvalues --    2.80644   2.80855   2.82848   2.83396   2.84235
 Alpha virt. eigenvalues --    2.84456   2.84845   2.85552   2.85708   2.86255
 Alpha virt. eigenvalues --    2.87045   2.87149   2.87730   2.88315   2.88435
 Alpha virt. eigenvalues --    2.88641   2.88904   2.91086   2.91225   2.91449
 Alpha virt. eigenvalues --    2.91615   2.92826   2.92958   2.93500   2.93886
 Alpha virt. eigenvalues --    2.94178   2.95505   2.95689   2.96332   2.97255
 Alpha virt. eigenvalues --    2.97416   2.99592   3.00098   3.00370   3.01058
 Alpha virt. eigenvalues --    3.01128   3.02675   3.02781   3.03366   3.04195
 Alpha virt. eigenvalues --    3.04754   3.05561   3.06668   3.07240   3.08663
 Alpha virt. eigenvalues --    3.08886   3.10467   3.11486   3.11933   3.14394
 Alpha virt. eigenvalues --    3.15382   3.15480   3.15713   3.16507   3.17851
 Alpha virt. eigenvalues --    3.19012   3.20811   3.20942   3.21166   3.21224
 Alpha virt. eigenvalues --    3.22038   3.22852   3.23131   3.23707   3.26070
 Alpha virt. eigenvalues --    3.27674   3.27971   3.28210   3.28395   3.32194
 Alpha virt. eigenvalues --    3.33628   3.33742   3.35481   3.36530   3.37004
 Alpha virt. eigenvalues --    3.37050   3.37245   3.37301   3.38024   3.38675
 Alpha virt. eigenvalues --    3.41082   3.43819   3.44459   3.45112   3.47910
 Alpha virt. eigenvalues --    3.49243   3.50808   3.51081   3.54382   3.55139
 Alpha virt. eigenvalues --    3.55470   3.56663   3.57141   3.58513   3.60799
 Alpha virt. eigenvalues --    3.62745   3.68796   3.69604   3.70499   3.71174
 Alpha virt. eigenvalues --    3.72373   3.75161   3.78682   3.79201   3.79675
 Alpha virt. eigenvalues --    3.81357   3.85068   3.87731   3.88650   3.88700
 Alpha virt. eigenvalues --    3.89615   3.91960   3.91973   3.93879   3.97406
 Alpha virt. eigenvalues --    3.97664   4.02988   4.08985   4.09529   4.10470
 Alpha virt. eigenvalues --    4.15295   4.15668   4.18602   4.19241   4.19458
 Alpha virt. eigenvalues --    4.19807   4.20721   4.23911   4.28117   4.30679
 Alpha virt. eigenvalues --    4.30996   4.32006   4.34935   4.35551   4.38004
 Alpha virt. eigenvalues --    4.40243   4.40533   4.41613   4.49487   4.57328
 Alpha virt. eigenvalues --    4.62778   4.72958   4.96192   4.97542   4.98547
 Alpha virt. eigenvalues --    5.00115   5.14756   5.14790   5.17037   5.17173
 Alpha virt. eigenvalues --    5.19100   5.49229   5.49456   5.54526   5.55736
 Alpha virt. eigenvalues --    5.57419   5.79073   5.79129   5.96421   5.98101
 Alpha virt. eigenvalues --    6.07031  23.73988  23.78243  23.80002  23.85275
 Alpha virt. eigenvalues --   23.97423  23.97570  24.02747  24.02917  24.05693
 Alpha virt. eigenvalues --   24.09106  24.09699  24.10290  24.11662  24.13064
 Alpha virt. eigenvalues --   24.13396  24.14816  24.16251  24.21855  24.22037
 Alpha virt. eigenvalues --   24.24680  24.25400  24.25654  24.26779  24.28468
 Alpha virt. eigenvalues --   24.30149  24.34104  24.34668  24.35440  24.36509
 Alpha virt. eigenvalues --   50.05648  50.05650  50.12493  50.13198  50.17713
          Condensed to atoms (all electrons):
 Mulliken charges:
               1
     1  C   -0.024531
     2  C   -0.228133
     3  C    0.007364
     4  C    0.914589
     5  C   -0.931768
     6  C   -0.529567
     7  H    0.224812
     8  H    0.200561
     9  H    0.267610
    10  C    0.004819
    11  C    0.914116
    12  C   -0.226932
    13  C   -0.929342
    14  C   -0.024257
    15  H    0.200680
    16  C   -0.527350
    17  H    0.267606
    18  H    0.224758
    19  C    1.122414
    20  C    0.370420
    21  C    0.129870
    22  C   -0.679585
    23  C   -0.292407
    24  C   -0.526176
    25  H    0.207752
    26  C   -0.345041
    27  H    0.236121
    28  H    0.216186
    29  H    0.208192
    30  C    0.370417
    31  C   -0.679581
    32  C    0.129865
    33  C   -0.526178
    34  H    0.207753
    35  C   -0.292408
    36  C   -0.345041
    37  H    0.216186
    38  H    0.236121
    39  H    0.208192
    40  O   -0.120857
    41  O   -0.080437
    42  O   -0.080623
    43  C   -0.392467
    44  H    0.186107
    45  H    0.186103
    46  C   -0.187825
    47  H    0.180031
    48  H    0.180031
    49  C   -0.392199
    50  H    0.186126
    51  H    0.186131
    52  C   -0.187773
    53  H    0.180027
    54  H    0.180028
    55  O   -0.265097
    56  H    0.264845
    57  O   -0.265097
    58  H    0.264841
 Sum of Mulliken charges =  -0.00000
 Mulliken charges with hydrogens summed into heavy atoms:
               1
     1  C    0.200280
     2  C   -0.027572
     3  C    0.007364
     4  C    0.914589
     5  C   -0.664158
     6  C   -0.529567
    10  C    0.004819
    11  C    0.914116
    12  C   -0.026251
    13  C   -0.661736
    14  C    0.200501
    16  C   -0.527350
    19  C    1.122414
    20  C    0.370420
    21  C    0.129870
    22  C   -0.471833
    23  C   -0.056287
    24  C   -0.309990
    26  C   -0.136849
    30  C    0.370417
    31  C   -0.471829
    32  C    0.129865
    33  C   -0.309992
    35  C   -0.056287
    36  C   -0.136849
    40  O   -0.120857
    41  O   -0.080437
    42  O   -0.080623
    43  C   -0.020257
    46  C    0.172237
    49  C   -0.019942
    52  C    0.172282
    55  O   -0.000253
    57  O   -0.000256
 Electronic spatial extent (au):  <R**2>=          18109.8169
 Charge=             -0.0000 electrons
 Dipole moment (field-independent basis, Debye):
    X=              0.0019    Y=              0.2650    Z=              0.0000  Tot=              0.2650
 Quadrupole moment (field-independent basis, Debye-Ang):
   XX=           -158.5540   YY=           -192.4499   ZZ=           -189.8917
   XY=             -0.0065   XZ=             -0.0022   YZ=              0.0002
 Traceless Quadrupole moment (field-independent basis, Debye-Ang):
   XX=             21.7445   YY=            -12.1514   ZZ=             -9.5932
   XY=             -0.0065   XZ=             -0.0022   YZ=              0.0002
 Octapole moment (field-independent basis, Debye-Ang**2):
  XXX=              0.0027  YYY=              4.4081  ZZZ=              0.0012  XYY=             -0.0327
  XXY=             84.7238  XXZ=              0.0027  XZZ=              0.0289  YZZ=             29.4786
  YYZ=             -0.0014  XYZ=              0.0418
 Hexadecapole moment (field-independent basis, Debye-Ang**3):
 XXXX=         -10066.5730 YYYY=          -4910.6903 ZZZZ=          -2915.4087 XXXY=              1.2468
 XXXZ=             -0.4387 YYYX=             -0.5840 YYYZ=              0.0015 ZZZX=              0.0957
 ZZZY=             -0.0015 XXYY=          -4004.4684 XXZZ=          -3191.2247 YYZZ=          -1303.3809
 XXYZ=              0.0079 YYXZ=             -0.0731 ZZXY=             -0.1446
 N-N= 3.377784310789D+03 E-N=-1.024255547744D+04  KE= 1.489704832016D+03
  Exact polarizability:     406.868      -0.080     357.730       0.001       0.000     309.343
 Approx polarizability:     381.929      -0.135     429.991      -0.003       0.001     345.389
 AllDun F.D. properties on file 20721 Mask=      11 NFrqRd=     5 NDeriv=     1 ND12= 1 LenFil=     142:
 Frequencies=    0.000000    0.069425    0.077318    0.077541    0.093732
 Property number 1 -- Alpha(-w,w) frequency  1    0.000000:
                 1             2             3 
      1   0.406868D+03 -0.798117D-01  0.135949D-02
      2  -0.798117D-01  0.357730D+03  0.425348D-03
      3   0.135949D-02  0.425348D-03  0.309343D+03
 Property number 1 -- Alpha(-w,w) frequency  2    0.069425:
                 1             2             3 
      1   0.431421D+03 -0.814609D-01  0.360030D-03
      2  -0.814609D-01  0.371531D+03  0.445847D-03
      3   0.360030D-03  0.445847D-03  0.321026D+03
 Property number 1 -- Alpha(-w,w) frequency  3    0.077318:
                 1             2             3 
      1   0.438394D+03 -0.818002D-01  0.374766D-04
      2  -0.818002D-01  0.375198D+03  0.451455D-03
      3   0.374766D-04  0.451455D-03  0.324119D+03
 Property number 1 -- Alpha(-w,w) frequency  4    0.077541:
                 1             2             3 
      1   0.438611D+03 -0.818098D-01  0.271922D-04
      2  -0.818098D-01  0.375310D+03  0.451627D-03
      3   0.271922D-04  0.451627D-03  0.324214D+03
 Property number 1 -- Alpha(-w,w) frequency  5    0.093732:
                 1             2             3 
      1   0.457694D+03 -0.824635D-01 -0.943197D-03
      2  -0.824635D-01  0.384778D+03  0.466546D-03
      3  -0.943197D-03  0.466546D-03  0.332170D+03
 Property number 5 -- Beta(-w,w,0) frequency  1    0.000000:
                 1 
      1   0.438692D+00
      2  -0.120504D+03
      3   0.475259D-01
      4  -0.241463D-02
      5   0.232659D-02
      6   0.206843D+00
      7  -0.120504D+03
      8   0.475259D-01
      9   0.617751D+02
     10   0.232659D-02
     11   0.190105D-02
     12  -0.126521D+03
     13  -0.241463D-02
     14   0.232659D-02
     15   0.190105D-02
     16   0.206843D+00
     17  -0.126521D+03
     18  -0.406157D-02
 Property number 5 -- Beta(-w,w,0) frequency  2    0.069425:
                 1 
      1   0.610139D+00
      2  -0.138656D+03
      3   0.710214D-01
      4  -0.299028D-02
      5   0.600142D-02
      6   0.242700D+00
      7  -0.170370D+03
      8   0.579321D-01
      9   0.762849D+02
     10   0.816746D-02
     11   0.213800D-02
     12  -0.147928D+03
     13  -0.337517D-02
     14   0.592639D-02
     15   0.192712D-02
     16   0.218774D+00
     17  -0.135322D+03
     18  -0.439943D-02
 Property number 5 -- Beta(-w,w,0) frequency  3    0.077318:
                 1 
      1   0.669236D+00
      2  -0.144411D+03
      3   0.777954D-01
      4  -0.316771D-02
      5   0.735600D-02
      6   0.253199D+00
      7  -0.188536D+03
      8   0.600850D-01
      9   0.809255D+02
     10   0.104508D-01
     11   0.220375D-02
     12  -0.154136D+03
     13  -0.370726D-02
     14   0.728460D-02
     15   0.191865D-02
     16   0.221063D+00
     17  -0.137101D+03
     18  -0.448044D-02
 Property number 5 -- Beta(-w,w,0) frequency  4    0.077541:
                 1 
      1   0.671152D+00
      2  -0.144595D+03
      3   0.780054D-01
      4  -0.317333D-02
      5   0.740037D-02
      6   0.253527D+00
      7  -0.189132D+03
      8   0.601446D-01
      9   0.810733D+02
     10   0.105268D-01
     11   0.220577D-02
     12  -0.154329D+03
     13  -0.371805D-02
     14   0.732934D-02
     15   0.191827D-02
     16   0.221126D+00
     17  -0.137151D+03
     18  -0.448285D-02
 Property number 5 -- Beta(-w,w,0) frequency  5    0.093732:
                 1 
      1   0.861067D+00
      2  -0.162185D+03
      3   0.962515D-01
      4  -0.369479D-02
      5   0.118836D-01
      6   0.282590D+00
      7  -0.250542D+03
      8   0.633972D-01
      9   0.949819D+02
     10   0.185702D-01
     11   0.238114D-02
     12  -0.171453D+03
     13  -0.479610D-02
     14   0.119242D-01
     15   0.185925D-02
     16   0.224556D+00
     17  -0.140246D+03
     18  -0.466668D-02

 ----------------------------------------------------------------------

 Electric dipole moment (input orientation):
 (Debye = 10**-18 statcoulomb cm , SI units = C m)
                  (au)            (Debye)         (10**-30 SI)
   Tot        0.104268D+00      0.265022D+00      0.884017D+00
   x          0.757670D-03      0.192580D-02      0.642379D-02
   y          0.104265D+00      0.265015D+00      0.883994D+00
   z          0.000000D+00      0.000000D+00      0.000000D+00

 Dipole polarizability, Alpha (input orientation).
 (esu units = cm**3 , SI units = C**2 m**2 J**-1)
 Alpha(0;0):
               (au)            (10**-24 esu)      (10**-40 SI)
   iso        0.357980D+03      0.530472D+02      0.590230D+02
   aniso      0.844603D+02      0.125157D+02      0.139256D+02
   xx         0.406868D+03      0.602916D+02      0.670835D+02
   yx        -0.798117D-01     -0.118269D-01     -0.131592D-01
   yy         0.357730D+03      0.530101D+02      0.589817D+02
   zx         0.135949D-02      0.201456D-03      0.224150D-03
   zy         0.425348D-03      0.630301D-04      0.701304D-04
   zz         0.309343D+03      0.458399D+02      0.510038D+02

 Dipole polarizability, Alpha (input orientation).
 (esu units = cm**3 , SI units = C**2 m**2 J**-1)
 Alpha(0;0):
               (au)            (10**-24 esu)      (10**-40 SI)
   iso        0.357980D+03      0.530472D+02      0.590230D+02
   aniso      0.844603D+02      0.125157D+02      0.139256D+02
   xx         0.406868D+03      0.602916D+02      0.670835D+02
   yx        -0.798117D-01     -0.118269D-01     -0.131592D-01
   yy         0.357730D+03      0.530101D+02      0.589817D+02
   zx         0.135949D-02      0.201456D-03      0.224150D-03
   zy         0.425348D-03      0.630301D-04      0.701304D-04
   zz         0.309343D+03      0.458399D+02      0.510038D+02
 Alpha(-w;w) w=  656.3nm:
                  (au)         (10**-24 esu)      (10**-40 SI)
   iso        0.374659D+03      0.555188D+02      0.617730D+02
   aniso      0.957202D+02      0.141843D+02      0.157821D+02
   xx         0.431421D+03      0.639300D+02      0.711318D+02
   yx        -0.814609D-01     -0.120713D-01     -0.134311D-01
   yy         0.371531D+03      0.550552D+02      0.612572D+02
   zx         0.360030D-03      0.533509D-04      0.593609D-04
   zy         0.445847D-03      0.660678D-04      0.735103D-04
   zz         0.321026D+03      0.475712D+02      0.529301D+02
 Alpha(-w;w) w=  589.3nm:
                  (au)         (10**-24 esu)      (10**-40 SI)
   iso        0.379237D+03      0.561971D+02      0.625277D+02
   aniso      0.991505D+02      0.146926D+02      0.163477D+02
   xx         0.438394D+03      0.649633D+02      0.722814D+02
   yx        -0.818002D-01     -0.121215D-01     -0.134870D-01
   yy         0.375198D+03      0.555986D+02      0.618617D+02
   zx         0.374766D-04      0.555345D-05      0.617905D-05
   zy         0.451455D-03      0.668987D-04      0.744348D-04
   zz         0.324119D+03      0.480295D+02      0.534400D+02
 Alpha(-w;w) w=  587.6nm:
                  (au)         (10**-24 esu)      (10**-40 SI)
   iso        0.379378D+03      0.562180D+02      0.625510D+02
   aniso      0.992586D+02      0.147086D+02      0.163655D+02
   xx         0.438611D+03      0.649954D+02      0.723171D+02
   yx        -0.818098D-01     -0.121230D-01     -0.134886D-01
   yy         0.375310D+03      0.556152D+02      0.618802D+02
   zx         0.271922D-04      0.402947D-05      0.448339D-05
   zy         0.451627D-03      0.669243D-04      0.744633D-04
   zz         0.324214D+03      0.480435D+02      0.534556D+02
 Alpha(-w;w) w=  486.1nm:
                  (au)         (10**-24 esu)      (10**-40 SI)
   iso        0.391547D+03      0.580213D+02      0.645574D+02
   aniso      0.109181D+03      0.161789D+02      0.180014D+02
   xx         0.457694D+03      0.678233D+02      0.754636D+02
   yx        -0.824635D-01     -0.122198D-01     -0.135964D-01
   yy         0.384778D+03      0.570182D+02      0.634413D+02
   zx        -0.943197D-03     -0.139767D-03     -0.155512D-03
   zy         0.466546D-03      0.691350D-04      0.769230D-04
   zz         0.332170D+03      0.492225D+02      0.547674D+02

 First dipole hyperpolarizability, Beta (input orientation).
 ||, _|_  parallel and perpendicular components, (z) with respect to z axis,
 vector components x,y,z.  Values do not include the 1/n! factor of 1/2.
 (esu units = statvolt**-1 cm**4 , SI units = C**3 m**3 J**-2)
 Beta(0;0,0):
               (au)            (10**-30 esu)      (10**-50 SI)
   || (z)    -0.274509D-02     -0.237154D-04     -0.880174D-05
   _|_(z)    -0.915029D-03     -0.790513D-05     -0.293391D-05
   x          0.207918D+01      0.179625D-01      0.666661D-02
   y         -0.555748D+03     -0.480123D+01     -0.178193D+01
   z         -0.137254D-01     -0.118577D-03     -0.440087D-04
   ||         0.111150D+03      0.960253D+00      0.356388D+00
   xxx        0.438692D+00      0.378995D-02      0.140660D-02
   xxy       -0.120504D+03     -0.104106D+01     -0.386378D+00
   yxy        0.475259D-01      0.410587D-03      0.152385D-03
   yyy        0.617751D+02      0.533689D+00      0.198073D+00
   xxz       -0.241463D-02     -0.208605D-04     -0.774217D-05
   yxz        0.232659D-02      0.200999D-04      0.745988D-05
   yyz        0.190105D-02      0.164236D-04      0.609546D-05
   zxz        0.206843D+00      0.178697D-02      0.663215D-03
   zyz       -0.126521D+03     -0.109304D+01     -0.405672D+00
   zzz       -0.406157D-02     -0.350888D-04     -0.130229D-04

 First dipole hyperpolarizability, Beta (input orientation).
 ||, _|_  parallel and perpendicular components, (z) with respect to z axis,
 vector components x,y,z.  Values do not include the 1/n! factor of 1/2.
 (esu units = statvolt**-1 cm**4 , SI units = C**3 m**3 J**-2)
 Beta(0;0,0):
               (au)            (10**-30 esu)      (10**-50 SI)
   || (z)    -0.274509D-02     -0.237154D-04     -0.880174D-05
   _|_(z)    -0.915029D-03     -0.790513D-05     -0.293391D-05
   x          0.207918D+01      0.179625D-01      0.666661D-02
   y         -0.555748D+03     -0.480123D+01     -0.178193D+01
   z         -0.137254D-01     -0.118577D-03     -0.440087D-04
   ||         0.111150D+03      0.960253D+00      0.356388D+00
   xxx        0.438692D+00      0.378995D-02      0.140660D-02
   xxy       -0.120504D+03     -0.104106D+01     -0.386378D+00
   yxy        0.475259D-01      0.410587D-03      0.152385D-03
   yyy        0.617751D+02      0.533689D+00      0.198073D+00
   xxz       -0.241463D-02     -0.208605D-04     -0.774217D-05
   yxz        0.232659D-02      0.200999D-04      0.745988D-05
   yyz        0.190105D-02      0.164236D-04      0.609546D-05
   zxz        0.206843D+00      0.178697D-02      0.663215D-03
   zyz       -0.126521D+03     -0.109304D+01     -0.405672D+00
   zzz       -0.406157D-02     -0.350888D-04     -0.130229D-04
 Beta(-w;w,0) w=  656.3nm:
                  (au)         (10**-30 esu)      (10**-50 SI)
   || (z)    -0.327018D-02     -0.282518D-04     -0.104854D-04
   _|_(z)    -0.128865D-02     -0.111329D-04     -0.413187D-05
   x          0.269755D+01      0.233047D-01      0.864932D-02
   y         -0.637399D+03     -0.550663D+01     -0.204373D+01
   z         -0.163509D-01     -0.141259D-03     -0.524269D-04
   ||         0.127481D+03      0.110134D+01      0.408750D+00
   xxx        0.610139D+00      0.527112D-02      0.195633D-02
   yxx       -0.138656D+03     -0.119788D+01     -0.444582D+00
   yyx        0.710214D-01      0.613569D-03      0.227720D-03
   zxx       -0.299028D-02     -0.258337D-04     -0.958792D-05
   zyx        0.600142D-02      0.518476D-04      0.192427D-04
   zzx        0.242700D+00      0.209674D-02      0.778184D-03
   xxy       -0.170370D+03     -0.147187D+01     -0.546269D+00
   yxy        0.579321D-01      0.500488D-03      0.185751D-03
   yyy        0.762849D+02      0.659042D+00      0.244597D+00
   zxy        0.816746D-02      0.705605D-04      0.261878D-04
   zyy        0.213800D-02      0.184706D-04      0.685519D-05
   zzy       -0.147928D+03     -0.127798D+01     -0.474310D+00
   xxz       -0.337517D-02     -0.291589D-04     -0.108220D-04
   yxz        0.592639D-02      0.511994D-04      0.190021D-04
   yyz        0.192712D-02      0.166488D-04      0.617905D-05
   zxz        0.218774D+00      0.189004D-02      0.701468D-03
   zyz       -0.135322D+03     -0.116908D+01     -0.433891D+00
   zzz       -0.439943D-02     -0.380076D-04     -0.141061D-04
 Beta(-w;w,0) w=  589.3nm:
                  (au)         (10**-30 esu)      (10**-50 SI)
   || (z)    -0.343157D-02     -0.296461D-04     -0.110029D-04
   _|_(z)    -0.141874D-02     -0.122568D-04     -0.454899D-05
   x          0.290100D+01      0.250624D-01      0.930165D-02
   y         -0.662919D+03     -0.572711D+01     -0.212556D+01
   z         -0.171579D-01     -0.148231D-03     -0.550143D-04
   ||         0.132585D+03      0.114543D+01      0.425116D+00
   xxx        0.669236D+00      0.578168D-02      0.214581D-02
   yxx       -0.144411D+03     -0.124760D+01     -0.463033D+00
   yyx        0.777954D-01      0.672092D-03      0.249440D-03
   zxx       -0.316771D-02     -0.273666D-04     -0.101568D-04
   zyx        0.735600D-02      0.635501D-04      0.235860D-04
   zzx        0.253199D+00      0.218744D-02      0.811848D-03
   xxy       -0.188536D+03     -0.162880D+01     -0.604513D+00
   yxy        0.600850D-01      0.519087D-03      0.192654D-03
   yyy        0.809255D+02      0.699133D+00      0.259476D+00
   zxy        0.104508D-01      0.902866D-04      0.335090D-04
   zyy        0.220375D-02      0.190386D-04      0.706601D-05
   zzy       -0.154136D+03     -0.133161D+01     -0.494215D+00
   xxz       -0.370726D-02     -0.320278D-04     -0.118868D-04
   yxz        0.728460D-02      0.629333D-04      0.233571D-04
   yyz        0.191865D-02      0.165756D-04      0.615188D-05
   zxz        0.221063D+00      0.190981D-02      0.708809D-03
   zyz       -0.137101D+03     -0.118445D+01     -0.439597D+00
   zzz       -0.448044D-02     -0.387075D-04     -0.143659D-04
 Beta(-w;w,0) w=  587.6nm:
                  (au)         (10**-30 esu)      (10**-50 SI)
   || (z)    -0.343669D-02     -0.296903D-04     -0.110193D-04
   _|_(z)    -0.142297D-02     -0.122933D-04     -0.456256D-05
   x          0.290753D+01      0.251188D-01      0.932259D-02
   y         -0.663733D+03     -0.573414D+01     -0.212817D+01
   z         -0.171834D-01     -0.148451D-03     -0.550963D-04
   ||         0.132748D+03      0.114684D+01      0.425638D+00
   xxx        0.671152D+00      0.579823D-02      0.215196D-02
   yxx       -0.144595D+03     -0.124918D+01     -0.463622D+00
   yyx        0.780054D-01      0.673906D-03      0.250114D-03
   zxx       -0.317333D-02     -0.274151D-04     -0.101748D-04
   zyx        0.740037D-02      0.639334D-04      0.237283D-04
   zzx        0.253527D+00      0.219027D-02      0.812898D-03
   xxy       -0.189132D+03     -0.163396D+01     -0.606427D+00
   yxy        0.601446D-01      0.519602D-03      0.192845D-03
   yyy        0.810733D+02      0.700410D+00      0.259950D+00
   zxy        0.105268D-01      0.909429D-04      0.337526D-04
   zyy        0.220577D-02      0.190562D-04      0.707251D-05
   zzy       -0.154329D+03     -0.133328D+01     -0.494835D+00
   xxz       -0.371805D-02     -0.321210D-04     -0.119214D-04
   yxz        0.732934D-02      0.633198D-04      0.235005D-04
   yyz        0.191827D-02      0.165724D-04      0.615067D-05
   zxz        0.221126D+00      0.191036D-02      0.709010D-03
   zyz       -0.137151D+03     -0.118488D+01     -0.439756D+00
   zzz       -0.448285D-02     -0.387283D-04     -0.143736D-04
 Beta(-w;w,0) w=  486.1nm:
                  (au)         (10**-30 esu)      (10**-50 SI)
   || (z)    -0.391284D-02     -0.338039D-04     -0.125460D-04
   _|_(z)    -0.184534D-02     -0.159423D-04     -0.591684D-05
   x          0.353795D+01      0.305651D-01      0.113439D-01
   y         -0.741912D+03     -0.640954D+01     -0.237884D+01
   z         -0.195642D-01     -0.169019D-03     -0.627298D-04
   ||         0.148384D+03      0.128192D+01      0.475773D+00
   xxx        0.861067D+00      0.743895D-02      0.276089D-02
   yxx       -0.162185D+03     -0.140115D+01     -0.520024D+00
   yyx        0.962515D-01      0.831538D-03      0.308617D-03
   zxx       -0.369479D-02     -0.319201D-04     -0.118468D-04
   zyx        0.118836D-01      0.102665D-03      0.381032D-04
   zzx        0.282590D+00      0.244136D-02      0.906087D-03
   xxy       -0.250542D+03     -0.216449D+01     -0.803328D+00
   yxy        0.633972D-01      0.547702D-03      0.203274D-03
   yyy        0.949819D+02      0.820569D+00      0.304546D+00
   zxy        0.185702D-01      0.160432D-03      0.595429D-04
   zyy        0.238114D-02      0.205712D-04      0.763480D-05
   zzy       -0.171453D+03     -0.148122D+01     -0.549740D+00
   xxz       -0.479610D-02     -0.414346D-04     -0.153780D-04
   yxz        0.119242D-01      0.103016D-03      0.382333D-04
   yyz        0.185925D-02      0.160625D-04      0.596143D-05
   zxz        0.224556D+00      0.193999D-02      0.720007D-03
   zyz       -0.140246D+03     -0.121162D+01     -0.449681D+00
   zzz       -0.466668D-02     -0.403165D-04     -0.149631D-04

 ----------------------------------------------------------------------

 Dipole orientation:
     6         -5.67389802          0.03983916         -4.71009932
     6         -3.09532997          0.02151381         -5.25072145
     6         -1.36232839          0.00939252         -3.28992749
     6         -2.22320084          0.01570029         -0.78784971
     6         -4.76045760          0.03375260         -0.21937254
     6         -6.50280903          0.04595276         -2.20493193
     1         -7.01431537          0.04915409         -6.25387896
     1         -2.47651362          0.01694619         -7.20499060
     1         -5.43987755          0.03875485          1.71357795
     6          1.41218595         -0.01025524         -3.26932680
     6          2.23582697         -0.01587359         -0.75474695
     6          3.17409996         -0.02290848         -5.20419046
     6          4.76437948         -0.03376819         -0.14869142
     6          5.74436022         -0.04108225         -4.62536210
     1          2.58434717         -0.01888162         -7.16742553
     6          6.53600967         -0.04650757         -2.10816683
     1          5.41502015         -0.03823942          1.79413244
     1          7.10752151         -0.05081461         -6.14909057
     6         -0.00727743          0.00016361          1.06531589
     6         -0.03636416         -2.36280011          2.69846191
     6         -0.05881129         -2.22693724          5.31807925
     6         -0.04195811         -4.75621003          1.58326637
     6         -0.08620167         -4.40535665          6.80115297
     6         -0.06899645         -6.93440899          3.02591842
     1         -0.02452160         -4.88229419         -0.46371486
     6         -0.09128127         -6.75161380          5.65530400
     1         -0.10297339         -4.20169161          8.83812700
     1         -0.07280316         -8.76826712          2.11556442
     1         -0.11257009         -8.44395770          6.80921253
     6         -0.00289204          2.36357370          2.69806756
     6          0.02541149          4.75663695          1.58247386
     6         -0.02726467          2.22847936          5.31770671
     6          0.02921828          6.93523984          3.02476267
     1          0.04463826          4.88211999         -0.46452733
     6         -0.02380477          4.40731343          6.80041906
     6          0.00434287          6.75321559          5.65418084
     1          0.05138898          8.76881732          2.11410511
     1         -0.04346219          4.20424405          8.83742587
     1          0.00702268          8.44588353          6.80780492
     8         -0.05596832          0.00097138          6.62008713
     8         -8.97252729          0.06343175         -1.50828691
     8          8.99511934         -0.06378553         -1.37494270
     6        -10.84389352          0.07775828         -3.41081938
     1        -10.67003950          1.76015290         -4.60790105
     1        -10.69574801         -1.60699550         -4.60804760
     6        -13.37709471          0.09699580         -2.07737127
     1        -13.52758074         -1.58324924         -0.87349834
     1        -13.50203337          1.77930250         -0.87345812
     6         10.89452052         -0.07873240         -3.24948698
     1         10.76424134          1.60568684         -4.44926254
     1         10.73837533         -1.76146034         -4.44853904
     6         13.40765363         -0.09769464         -1.87858845
     1         13.51464081         -1.77966684         -0.67247977
     1         13.54033464          1.58288377         -0.67309046
     8        -15.24569358          0.11123694         -3.99100117
     1        -16.87989335          0.12302001         -3.21813413
     8         15.30443592         -0.11255171         -3.76428255
     1         16.92699061         -0.12413772         -2.96725556

 Electric dipole moment (dipole orientation):
 (Debye = 10**-18 statcoulomb cm , SI units = C m)
                  (au)            (Debye)         (10**-30 SI)
   Tot        0.104268D+00      0.265022D+00      0.884017D+00
   x          0.000000D+00      0.000000D+00      0.000000D+00
   y          0.000000D+00      0.000000D+00      0.000000D+00
   z          0.104268D+00      0.265022D+00      0.884017D+00

 Dipole polarizability, Alpha (dipole orientation).
 (esu units = cm**3 , SI units = C**2 m**2 J**-1)
 Alpha(0;0):
               (au)            (10**-24 esu)      (10**-40 SI)
   iso        0.357980D+03      0.530472D+02      0.590230D+02
   aniso      0.844603D+02      0.125157D+02      0.139256D+02
   xx         0.406862D+03      0.602907D+02      0.670824D+02
   yx        -0.709978D+00     -0.105208D+00     -0.117060D+00
   yy         0.309348D+03      0.458407D+02      0.510046D+02
   zx         0.277276D+00      0.410881D-01      0.457166D-01
   zy         0.206405D-02      0.305861D-03      0.340316D-03
   zz         0.357732D+03      0.530103D+02      0.589820D+02

 Dipole polarizability, Alpha (dipole orientation).
 (esu units = cm**3 , SI units = C**2 m**2 J**-1)
 Alpha(0;0):
               (au)            (10**-24 esu)      (10**-40 SI)
   iso        0.357980D+03      0.530472D+02      0.590230D+02
   aniso      0.844603D+02      0.125157D+02      0.139256D+02
   xx         0.406862D+03      0.602907D+02      0.670824D+02
   yx        -0.709978D+00     -0.105208D+00     -0.117060D+00
   yy         0.309348D+03      0.458407D+02      0.510046D+02
   zx         0.277276D+00      0.410881D-01      0.457166D-01
   zy         0.206405D-02      0.305861D-03      0.340316D-03
   zz         0.357732D+03      0.530103D+02      0.589820D+02
 Alpha(-w;w) w=  656.3nm:
                  (au)         (10**-24 esu)      (10**-40 SI)
   iso        0.374659D+03      0.555188D+02      0.617730D+02
   aniso      0.957202D+02      0.141843D+02      0.157821D+02
   xx         0.431413D+03      0.639289D+02      0.711305D+02
   yx        -0.802485D+00     -0.118916D+00     -0.132312D+00
   yy         0.321032D+03      0.475720D+02      0.529310D+02
   zx         0.353757D+00      0.524213D-01      0.583266D-01
   zy         0.169264D-02      0.250823D-03      0.279078D-03
   zz         0.371533D+03      0.550555D+02      0.612575D+02
 Alpha(-w;w) w=  589.3nm:
                  (au)         (10**-24 esu)      (10**-40 SI)
   iso        0.379237D+03      0.561971D+02      0.625277D+02
   aniso      0.991505D+02      0.146926D+02      0.163477D+02
   xx         0.438386D+03      0.649621D+02      0.722801D+02
   yx        -0.830352D+00     -0.123045D+00     -0.136907D+00
   yy         0.324125D+03      0.480304D+02      0.534410D+02
   zx         0.377441D+00      0.559310D-01      0.622316D-01
   zy         0.157081D-02      0.232771D-03      0.258992D-03
   zz         0.375200D+03      0.555989D+02      0.618621D+02
 Alpha(-w;w) w=  587.6nm:
                  (au)         (10**-24 esu)      (10**-40 SI)
   iso        0.379378D+03      0.562180D+02      0.625510D+02
   aniso      0.992586D+02      0.147086D+02      0.163655D+02
   xx         0.438602D+03      0.649942D+02      0.723158D+02
   yx        -0.831228D+00     -0.123175D+00     -0.137051D+00
   yy         0.324220D+03      0.480444D+02      0.534566D+02
   zx         0.378190D+00      0.560420D-01      0.623551D-01
   zy         0.156692D-02      0.232193D-03      0.258350D-03
   zz         0.375312D+03      0.556155D+02      0.618806D+02
 Alpha(-w;w) w=  486.1nm:
                  (au)         (10**-24 esu)      (10**-40 SI)
   iso        0.391547D+03      0.580213D+02      0.645574D+02
   aniso      0.109181D+03      0.161789D+02      0.180014D+02
   xx         0.457685D+03      0.678219D+02      0.754621D+02
   yx        -0.911103D+00     -0.135012D+00     -0.150221D+00
   yy         0.332177D+03      0.492235D+02      0.547685D+02
   zx         0.447403D+00      0.662983D-01      0.737668D-01
   zy         0.119720D-02      0.177407D-03      0.197392D-03
   zz         0.384781D+03      0.570186D+02      0.634418D+02

 First dipole hyperpolarizability, Beta (dipole orientation).
 ||, _|_  parallel and perpendicular components, (z) with respect to z axis,
 vector components x,y,z.  Values do not include the 1/n! factor of 1/2.
 (esu units = statvolt**-1 cm**4 , SI units = C**3 m**3 J**-2)
 Beta(0;0,0):
               (au)            (10**-30 esu)      (10**-50 SI)
   || (z)    -0.111144D+03     -0.960195D+00     -0.356367D+00
   _|_(z)    -0.370479D+02     -0.320065D+00     -0.118789D+00
   x          0.611709D+01      0.528469D-01      0.196136D-01
   y         -0.825688D-01     -0.713330D-03     -0.264745D-03
   z         -0.555718D+03     -0.480097D+01     -0.178183D+01
   ||         0.111150D+03      0.960253D+00      0.356388D+00
   xxx        0.306520D+01      0.264809D-01      0.982814D-02
   xxy       -0.146988D-01     -0.126986D-03     -0.471296D-04
   yxy        0.112607D+01      0.972834D-02      0.361058D-02
   yyy       -0.558956D-01     -0.482894D-03     -0.179221D-03
   xxz       -0.120476D+03     -0.104082D+01     -0.386290D+00
   yxz       -0.464922D-01     -0.401656D-03     -0.149071D-03
   yyz       -0.126516D+03     -0.109300D+01     -0.405655D+00
   zxz       -0.215224D+01     -0.185937D-01     -0.690085D-02
   zyz        0.430714D-01      0.372103D-03      0.138103D-03
   zzz        0.617522D+02      0.533491D+00      0.198000D+00

 First dipole hyperpolarizability, Beta (dipole orientation).
 ||, _|_  parallel and perpendicular components, (z) with respect to z axis,
 vector components x,y,z.  Values do not include the 1/n! factor of 1/2.
 (esu units = statvolt**-1 cm**4 , SI units = C**3 m**3 J**-2)
 Beta(0;0,0):
               (au)            (10**-30 esu)      (10**-50 SI)
   || (z)    -0.111144D+03     -0.960195D+00     -0.356367D+00
   _|_(z)    -0.370479D+02     -0.320065D+00     -0.118789D+00
   x          0.611709D+01      0.528469D-01      0.196136D-01
   y         -0.825688D-01     -0.713330D-03     -0.264745D-03
   z         -0.555718D+03     -0.480097D+01     -0.178183D+01
   ||         0.111150D+03      0.960253D+00      0.356388D+00
   xxx        0.306520D+01      0.264809D-01      0.982814D-02
   xxy       -0.146988D-01     -0.126986D-03     -0.471296D-04
   yxy        0.112607D+01      0.972834D-02      0.361058D-02
   yyy       -0.558956D-01     -0.482894D-03     -0.179221D-03
   xxz       -0.120476D+03     -0.104082D+01     -0.386290D+00
   yxz       -0.464922D-01     -0.401656D-03     -0.149071D-03
   yyz       -0.126516D+03     -0.109300D+01     -0.405655D+00
   zxz       -0.215224D+01     -0.185937D-01     -0.690085D-02
   zyz        0.430714D-01      0.372103D-03      0.138103D-03
   zzz        0.617522D+02      0.533491D+00      0.198000D+00
 Beta(-w;w,0) w=  656.3nm:
                  (au)         (10**-30 esu)      (10**-50 SI)
   || (z)    -0.127473D+03     -0.110126D+01     -0.408723D+00
   _|_(z)    -0.572638D+02     -0.494714D+00     -0.183608D+00
   x          0.732870D+01      0.633142D-01      0.234984D-01
   y         -0.963644D-01     -0.832513D-03     -0.308979D-03
   z         -0.637363D+03     -0.550632D+01     -0.204362D+01
   ||         0.127481D+03      0.110134D+01      0.408750D+00
   xxx        0.386268D+01      0.333706D-01      0.123852D-01
   yxx       -0.195998D-01     -0.169327D-03     -0.628439D-04
   yyx        0.131749D+01      0.113821D-01      0.422434D-02
   zxx       -0.138621D+03     -0.119758D+01     -0.444470D+00
   zyx        0.176928D-01      0.152852D-03      0.567296D-04
   zzx       -0.249792D+01     -0.215801D-01     -0.800922D-02
   xxy       -0.230296D-01     -0.198958D-03     -0.738412D-04
   yxy        0.120198D+01      0.103842D-01      0.385399D-02
   yyy       -0.616906D-01     -0.532959D-03     -0.197802D-03
   zxy        0.177570D-01      0.153407D-03      0.569355D-04
   zyy       -0.135317D+03     -0.116903D+01     -0.433875D+00
   zzy        0.485002D-01      0.419004D-03      0.155509D-03
   xxz       -0.170334D+03     -0.147155D+01     -0.546151D+00
   yxz        0.154362D+00      0.133356D-02      0.494939D-03
   yyz       -0.147923D+03     -0.127794D+01     -0.474295D+00
   zxz       -0.274145D+01     -0.236840D-01     -0.879007D-02
   zyz        0.512181D-01      0.442485D-03      0.164224D-03
   zzz        0.762566D+02      0.658798D+00      0.244506D+00
 Beta(-w;w,0) w=  589.3nm:
                  (au)         (10**-30 esu)      (10**-50 SI)
   || (z)    -0.132576D+03     -0.114535D+01     -0.425087D+00
   _|_(z)    -0.645778D+02     -0.557902D+00     -0.207060D+00
   x          0.771756D+01      0.666737D-01      0.247453D-01
   y         -0.100764D+00     -0.870520D-03     -0.323085D-03
   z         -0.662881D+03     -0.572677D+01     -0.212544D+01
   ||         0.132585D+03      0.114543D+01      0.425116D+00
   xxx        0.413737D+01      0.357436D-01      0.132659D-01
   yxx       -0.214139D-01     -0.185000D-03     -0.686608D-04
   yyx        0.137311D+01      0.118626D-01      0.440267D-02
   zxx       -0.144373D+03     -0.124727D+01     -0.462913D+00
   zyx        0.451950D-01      0.390449D-03      0.144911D-03
   zzx       -0.260847D+01     -0.225352D-01     -0.836371D-02
   xxy       -0.261470D-01     -0.225890D-03     -0.838368D-04
   yxy        0.121722D+01      0.105158D-01      0.390284D-02
   yyy       -0.631461D-01     -0.545533D-03     -0.202469D-03
   zxy        0.452510D-01      0.390934D-03      0.145091D-03
   zyy       -0.137096D+03     -0.118441D+01     -0.439581D+00
   zzy        0.500571D-01      0.432454D-03      0.160501D-03
   xxz       -0.188495D+03     -0.162845D+01     -0.604385D+00
   yxz        0.238927D+00      0.206414D-02      0.766086D-03
   yyz       -0.154132D+03     -0.133158D+01     -0.494202D+00
   zxz       -0.294680D+01     -0.254581D-01     -0.944851D-02
   zyz        0.537961D-01      0.464757D-03      0.172490D-03
   zzz        0.808953D+02      0.698873D+00      0.259380D+00
 Beta(-w;w,0) w=  587.6nm:
                  (au)         (10**-30 esu)      (10**-50 SI)
   || (z)    -0.132739D+03     -0.114676D+01     -0.425609D+00
   _|_(z)    -0.648176D+02     -0.559973D+00     -0.207829D+00
   x          0.773001D+01      0.667812D-01      0.247852D-01
   y         -0.100905D+00     -0.871737D-03     -0.323536D-03
   z         -0.663695D+03     -0.573380D+01     -0.212804D+01
   ||         0.132748D+03      0.114684D+01      0.425638D+00
   xxx        0.414629D+01      0.358207D-01      0.132945D-01
   yxx       -0.214737D-01     -0.185516D-03     -0.688526D-04
   yyx        0.137484D+01      0.118775D-01      0.440823D-02
   zxx       -0.144557D+03     -0.124886D+01     -0.463502D+00
   zyx        0.461223D-01      0.398461D-03      0.147885D-03
   zzx       -0.261201D+01     -0.225657D-01     -0.837504D-02
   xxy       -0.262499D-01     -0.226779D-03     -0.841666D-04
   yxy        0.121764D+01      0.105195D-01      0.390420D-02
   yyy       -0.631898D-01     -0.545910D-03     -0.202609D-03
   zxy        0.461779D-01      0.398941D-03      0.148063D-03
   zyy       -0.137146D+03     -0.118484D+01     -0.439741D+00
   zzy        0.501056D-01      0.432873D-03      0.160657D-03
   xxz       -0.189092D+03     -0.163361D+01     -0.606298D+00
   yxz        0.241782D+00      0.208881D-02      0.775240D-03
   yyz       -0.154325D+03     -0.133325D+01     -0.494822D+00
   zxz       -0.295349D+01     -0.255158D-01     -0.946995D-02
   zyz        0.538783D-01      0.465466D-03      0.172753D-03
   zzz        0.810430D+02      0.700149D+00      0.259853D+00
 Beta(-w;w,0) w=  486.1nm:
                  (au)         (10**-30 esu)      (10**-50 SI)
   || (z)    -0.148373D+03     -0.128183D+01     -0.475738D+00
   _|_(z)    -0.893109D+02     -0.771577D+00     -0.286363D+00
   x          0.892843D+01      0.771347D-01      0.286278D-01
   y         -0.114525D+00     -0.989408D-03     -0.367209D-03
   z         -0.741867D+03     -0.640915D+01     -0.237869D+01
   ||         0.148384D+03      0.128192D+01      0.475773D+00
   xxx        0.503792D+01      0.435237D-01      0.161534D-01
   yxx       -0.276772D-01     -0.239110D-03     -0.887432D-04
   yyx        0.152836D+01      0.132039D-01      0.490048D-02
   zxx       -0.162139D+03     -0.140076D+01     -0.519877D+00
   zyx        0.146874D+00      0.126887D-02      0.470930D-03
   zzx       -0.295040D+01     -0.254892D-01     -0.946005D-02
   xxy       -0.369356D-01     -0.319095D-03     -0.118429D-03
   yxy        0.124362D+01      0.107439D-01      0.398751D-02
   yyy       -0.666733D-01     -0.576005D-03     -0.213779D-03
   zxy        0.146801D+00      0.126824D-02      0.470696D-03
   zyy       -0.140242D+03     -0.121158D+01     -0.449667D+00
   zzy        0.544314D-01      0.470245D-03      0.174527D-03
   xxz       -0.250491D+03     -0.216404D+01     -0.803164D+00
   yxz        0.555420D+00      0.479840D-02      0.178088D-02
   yyz       -0.171450D+03     -0.148120D+01     -0.549731D+00
   zxz       -0.362527D+01     -0.313195D-01     -0.116239D-01
   zyz        0.616767D-01      0.532839D-03      0.197758D-03
   zzz        0.949456D+02      0.820256D+00      0.304430D+00

 ----------------------------------------------------------------------
 Unable to Open any file for archive entry.
 1\1\GINC-SKKUPSL\SP\RwB97XD\6-311++G(d,p)\C29H24O5\PSL\25-Oct-2025\0\\
 # wb97xd/6-311++g(d,p) geom=connectivity polar cphf=rdfreq\\Title Card
  Required\\0,1\C,0,-3.020604,-2.470593,0.000504\C,0,-1.658165,-2.76658
 6,0.000259\C,0,-0.733562,-1.73567,0.000106\C,0,-1.179495,-0.408352,0.0
 00202\C,0,-2.519966,-0.097778,0.000434\C,0,-3.449612,-1.141763,0.00058
 \H,0,-3.735857,-3.28235,0.000653\H,0,-1.338216,-3.803093,0.0002\H,0,-2
 .872067,0.927681,0.000495\C,0,0.734725,-1.735438,-0.000165\C,0,1.18024
 5,-0.407982,-0.000235\C,0,1.659649,-2.766072,-0.00034\C,0,2.520626,-0.
 097003,-0.000459\C,0,3.021996,-2.469661,-0.000578\H,0,1.340017,-3.8026
 76,-0.0003\C,0,3.450597,-1.140698,-0.000627\H,0,2.8724,0.928566,-0.000
 499\H,0,3.73749,-3.281204,-0.000745\C,0,0.000245,0.563754,-0.000006\C,
 0,0.000219,1.427884,1.25058\C,0,-0.002108,2.814186,1.178902\C,0,0.0021
 73,0.8376,2.517051\C,0,-0.002523,3.598911,2.33182\C,0,0.001788,1.60093
 4,3.669849\H,0,0.004013,-0.245664,2.583602\C,0,-0.000596,2.992408,3.57
 3336\H,0,-0.004348,4.676883,2.224213\H,0,0.003324,1.119081,4.640229\H,
 0,-0.000917,3.602965,4.469001\C,0,-0.000243,1.427912,-1.250572\C,0,0.0
 01243,0.837657,-2.517057\C,0,-0.002547,2.814212,-1.178862\C,0,0.000427
 ,1.601017,-3.669837\H,0,0.003063,-0.245605,-2.583633\C,0,-0.003392,3.5
 98964,-2.331761\C,0,-0.001925,2.99249,-3.573291\H,0,0.001607,1.119187,
 -4.640229\H,0,-0.00518,4.676933,-2.224128\H,0,-0.002579,3.603066,-4.46
 8942\O,0,-0.004163,3.503322,0.000028\O,0,-4.75385,-0.763627,0.000862\O
 ,0,4.754719,-0.762159,-0.000904\C,0,-5.751453,-1.763181,0.000383\H,0,-
 5.67053,-2.397171,-0.890606\H,0,-5.671188,-2.39741,0.891264\C,0,-7.086
 841,-1.047828,0.00001\H,0,-7.155381,-0.410334,0.889772\H,0,-7.154791,-
 0.410151,-0.889665\C,0,5.752635,-1.761403,-0.000391\H,0,5.672608,-2.39
 5649,-0.891282\H,0,5.67187,-2.395427,0.890588\C,0,7.087802,-1.045638,0
 .000047\H,0,7.155519,-0.407951,0.889733\H,0,7.156184,-0.408113,-0.8897
 04\O,0,-8.083022,-2.053265,-0.000435\H,0,-8.944831,-1.638008,-0.000348
 \O,0,8.084289,-2.050772,0.000522\H,0,8.945972,-1.635254,0.000453\\Vers
 ion=ES64L-G16RevC.01\State=1-A\HF=-1495.5371214\RMSD=4.412e-09\Dipole=
 0.0007577,0.1042648,0.0000097\Polar=406.86814,-0.0798117,357.7301136,0
 .0013595,0.0004253,309.3428774\HyperPolar=0.4386915,-120.5036731,0.047
 5259,61.7751217,-0.0024146,0.0023266,0.0019011,0.2068434,-126.5208422,
 -0.0040616\Quadrupole=16.1665343,-9.034254,-7.1322804,-0.0048023,-0.00
 16307,0.0001427\PG=C01 [X(C29H24O5)]\\@
 The archive entry for this job was punched.


 THE NUMBERS ARE MEANINGLESS, BUT THE TRENDS ARE IMPORTANT.
     -- LARRY BURGGRAF
 Job cpu time:       1 days  7 hours  8 minutes 17.3 seconds.
 Elapsed time:       1 days  7 hours 27 minutes 23.7 seconds.
 File lengths (MBytes):  RWF=   4271 Int=      0 D2E=      0 Chk=     55 Scr=      1
 Normal termination of Gaussian 16 at Sat Oct 25 00:46:58 2025.
