 Entering Gaussian System, Link 0=g16
 Initial command:
 /home/psl/g16/l1.exe "/home/psl/g16/scratch/Gau-3054535.inp" -scrdir="/home/psl/g16/scratch/"
 Entering Link 1 = /home/psl/g16/l1.exe PID=   3054543.
  
 Copyright (c) 1988-2019, Gaussian, Inc.  All Rights Reserved.
  
 This is part of the Gaussian(R) 16 program.  It is based on
 the Gaussian(R) 09 system (copyright 2009, Gaussian, Inc.),
 the Gaussian(R) 03 system (copyright 2003, Gaussian, Inc.),
 the Gaussian(R) 98 system (copyright 1998, Gaussian, Inc.),
 the Gaussian(R) 94 system (copyright 1995, Gaussian, Inc.),
 the Gaussian 92(TM) system (copyright 1992, Gaussian, Inc.),
 the Gaussian 90(TM) system (copyright 1990, Gaussian, Inc.),
 the Gaussian 88(TM) system (copyright 1988, Gaussian, Inc.),
 the Gaussian 86(TM) system (copyright 1986, Carnegie Mellon
 University), and the Gaussian 82(TM) system (copyright 1983,
 Carnegie Mellon University). Gaussian is a federally registered
 trademark of Gaussian, Inc.
  
 This software contains proprietary and confidential information,
 including trade secrets, belonging to Gaussian, Inc.
  
 This software is provided under written license and may be
 used, copied, transmitted, or stored only in accord with that
 written license.
  
 The following legend is applicable only to US Government
 contracts under FAR:
  
                    RESTRICTED RIGHTS LEGEND
  
 Use, reproduction and disclosure by the US Government is
 subject to restrictions as set forth in subparagraphs (a)
 and (c) of the Commercial Computer Software - Restricted
 Rights clause in FAR 52.227-19.
  
 Gaussian, Inc.
 340 Quinnipiac St., Bldg. 40, Wallingford CT 06492
  
  
 ---------------------------------------------------------------
 Warning -- This program may not be used in any manner that
 competes with the business of Gaussian, Inc. or will provide
 assistance to any competitor of Gaussian, Inc.  The licensee
 of this program is prohibited from giving any competitor of
 Gaussian, Inc. access to this program.  By using this program,
 the user acknowledges that Gaussian, Inc. is engaged in the
 business of creating and licensing software in the field of
 computational chemistry and represents and warrants to the
 licensee that it is not a competitor of Gaussian, Inc. and that
 it will not use this program in any manner prohibited above.
 ---------------------------------------------------------------
  

 Cite this work as:
 Gaussian 16, Revision C.01,
 M. J. Frisch, G. W. Trucks, H. B. Schlegel, G. E. Scuseria, 
 M. A. Robb, J. R. Cheeseman, G. Scalmani, V. Barone, 
 G. A. Petersson, H. Nakatsuji, X. Li, M. Caricato, A. V. Marenich, 
 J. Bloino, B. G. Janesko, R. Gomperts, B. Mennucci, H. P. Hratchian, 
 J. V. Ortiz, A. F. Izmaylov, J. L. Sonnenberg, D. Williams-Young, 
 F. Ding, F. Lipparini, F. Egidi, J. Goings, B. Peng, A. Petrone, 
 T. Henderson, D. Ranasinghe, V. G. Zakrzewski, J. Gao, N. Rega, 
 G. Zheng, W. Liang, M. Hada, M. Ehara, K. Toyota, R. Fukuda, 
 J. Hasegawa, M. Ishida, T. Nakajima, Y. Honda, O. Kitao, H. Nakai, 
 T. Vreven, K. Throssell, J. A. Montgomery, Jr., J. E. Peralta, 
 F. Ogliaro, M. J. Bearpark, J. J. Heyd, E. N. Brothers, K. N. Kudin, 
 V. N. Staroverov, T. A. Keith, R. Kobayashi, J. Normand, 
 K. Raghavachari, A. P. Rendell, J. C. Burant, S. S. Iyengar, 
 J. Tomasi, M. Cossi, J. M. Millam, M. Klene, C. Adamo, R. Cammi, 
 J. W. Ochterski, R. L. Martin, K. Morokuma, O. Farkas, 
 J. B. Foresman, and D. J. Fox, Gaussian, Inc., Wallingford CT, 2019.
 
 ******************************************
 Gaussian 16:  ES64L-G16RevC.01  3-Jul-2019
                30-Oct-2025 
 ******************************************
 %nprocshared=1
 Will use up to    1 processors via shared memory.
 %mem=4GB
 %chk=XRD-FX_EN_WB97XD_6-311++GDP_G_251029.chk
 ----------------------------------------
 # wb97xd/6-311++g(d,p) polar cphf=rdfreq
 ----------------------------------------
 1/38=1,83=1,172=1/1;
 2/12=2,17=6,18=5,40=1/2;
 3/5=4,6=6,7=1111,11=2,25=1,30=1,74=-58/1,2,3;
 4//1;
 5/5=2,38=5,98=1/2;
 8/6=4,10=90,11=11/1;
 10/6=1,13=10,72=3/2;
 6/7=2,8=2,9=2,10=2,28=1/1;
 99/5=1,9=1/99;
 -------------------
 Title Card Required
 -------------------
 Symbolic Z-matrix:
 Charge =  0 Multiplicity = 1
 O                     2.56874   14.70364   7.29038 
 O                    -0.32839   16.70634   11.85672 
 O                     1.49596   8.0176    8.41329 
 C                     3.33082   14.16038   8.31058 
 C                     4.64946   14.60753   8.37857 
 H                     4.97299   15.23215   7.75518 
 C                     5.47044   14.12294   9.3696 
 H                     6.35534   14.43298   9.43729 
 C                     5.00267   13.18553   10.26361 
 H                     5.57346   12.83902   10.92507 
 C                     3.69433   12.75669   10.18585 
 H                     3.3827    12.11895   10.80194 
 C                     2.82296   13.24728   9.21452 
 C                     1.3459    12.87257   9.22823 
 C                     0.70493   13.26527   7.89641 
 C                    -0.55033   12.78441   7.53008 
 H                    -0.98866   12.16967   8.09 
 C                    -1.16507   13.19217   6.36077 
 H                    -2.01554   12.8609   6.13523 
 C                    -0.52689   14.08793   5.5241 
 H                    -0.94454   14.36848   4.73032 
 C                     0.71703   14.56831   5.85133 
 H                     1.15667   15.1717   5.27988 
 C                     1.32476   14.156    7.03668 
 C                     0.6432    13.55926   10.41037 
 C                     0.49313   14.90898   10.61462 
 H                     0.84642   15.52777   10.00159 
 C                    -0.19365   15.34592   11.74949 
 C                    -1.08671   17.2329   12.93513 
 H                    -1.12721   18.19916   12.86014 
 H                    -1.98531   16.86825   12.90683 
 H                    -0.66581   16.9898   13.77487 
 C                    -0.68789   14.42261   12.66917 
 H                    -1.14339   14.72341   13.43451 
 C                    -0.51159   13.05814   12.46084 
 H                    -0.83684   12.44114   13.09094 
 C                     0.14694   12.60581   11.32028 
 C                     0.43201   11.259    10.78662 
 C                     0.12436   9.98367   11.24033 
 H                    -0.32028   9.87039   12.06067 
 C                     0.47717   8.86993   10.47675 
 H                     0.27086   8.00593   10.78516 
 C                     1.13178   9.03508   9.25945 
 C                     1.01131   6.70856   8.69252 
 H                     1.34263   6.0914    8.02129 
 H                     1.32008   6.42948   9.56859 
 H                     0.04139   6.71278   8.67779 
 C                     1.46751   10.31057   8.80894 
 H                     1.92994   10.42353   7.99824 
 C                     1.11353   11.40163   9.56771 
 
 Using perturbation frequencies:    0.000000    0.069425    0.077318    0.077541    0.093732
                          Input orientation:                          
 ---------------------------------------------------------------------
 Center     Atomic      Atomic             Coordinates (Angstroms)
 Number     Number       Type             X           Y           Z
 ---------------------------------------------------------------------
      1          8           0        2.568739   14.703639    7.290381
      2          8           0       -0.328394   16.706338   11.856717
      3          8           0        1.495964    8.017603    8.413291
      4          6           0        3.330824   14.160380    8.310585
      5          6           0        4.649457   14.607531    8.378570
      6          1           0        4.972988   15.232149    7.755184
      7          6           0        5.470440   14.122942    9.369596
      8          1           0        6.355344   14.432982    9.437288
      9          6           0        5.002665   13.185529   10.263605
     10          1           0        5.573464   12.839023   10.925068
     11          6           0        3.694331   12.756692   10.185846
     12          1           0        3.382703   12.118946   10.801937
     13          6           0        2.822964   13.247278    9.214515
     14          6           0        1.345899   12.872572    9.228229
     15          6           0        0.704931   13.265267    7.896405
     16          6           0       -0.550332   12.784406    7.530077
     17          1           0       -0.988657   12.169674    8.090000
     18          6           0       -1.165065   13.192174    6.360774
     19          1           0       -2.015542   12.860903    6.135229
     20          6           0       -0.526893   14.087935    5.524099
     21          1           0       -0.944535   14.368478    4.730315
     22          6           0        0.717033   14.568310    5.851329
     23          1           0        1.156666   15.171697    5.279880
     24          6           0        1.324758   14.156004    7.036680
     25          6           0        0.643196   13.559262   10.410370
     26          6           0        0.493130   14.908981   10.614615
     27          1           0        0.846416   15.527765   10.001588
     28          6           0       -0.193645   15.345922   11.749488
     29          6           0       -1.086705   17.232903   12.935131
     30          1           0       -1.127210   18.199164   12.860144
     31          1           0       -1.985307   16.868246   12.906828
     32          1           0       -0.665809   16.989798   13.774870
     33          6           0       -0.687890   14.422609   12.669174
     34          1           0       -1.143391   14.723411   13.434510
     35          6           0       -0.511590   13.058142   12.460844
     36          1           0       -0.836838   12.441141   13.090940
     37          6           0        0.146944   12.605805   11.320282
     38          6           0        0.432013   11.259003   10.786619
     39          6           0        0.124360    9.983674   11.240334
     40          1           0       -0.320276    9.870387   12.060670
     41          6           0        0.477172    8.869929   10.476750
     42          1           0        0.270864    8.005934   10.785160
     43          6           0        1.131782    9.035078    9.259449
     44          6           0        1.011312    6.708564    8.692523
     45          1           0        1.342627    6.091401    8.021287
     46          1           0        1.320080    6.429479    9.568589
     47          1           0        0.041385    6.712777    8.677789
     48          6           0        1.467514   10.310569    8.808943
     49          1           0        1.929943   10.423532    7.998236
     50          6           0        1.113529   11.401625    9.567713
 ---------------------------------------------------------------------
                    Distance matrix (angstroms):
                    1          2          3          4          5
     1  O    0.000000
     2  O    5.766767   0.000000
     3  O    6.864026   9.522583   0.000000
     4  C    1.384457   5.696212   6.411784   0.000000
     5  C    2.350059   6.425068   7.305674   1.394044   0.000000
     6  H    2.505150   6.862977   8.035700   2.038102   0.939910
     7  C    3.616658   6.818078   7.347526   2.387648   1.375126
     8  H    4.361289   7.462851   8.112905   3.239057   2.015292
     9  C    4.131430   6.584398   6.513684   2.749486   2.387510
    10  H    5.071106   7.117304   6.795669   3.689301   3.235129
    11  C    3.666235   5.879952   5.516678   2.370460   2.757556
    12  H    4.435561   5.994078   5.107487   3.221332   3.697354
    13  C    2.426501   5.373768   5.454575   1.381581   2.425937
    14  C    2.933155   4.940644   4.925177   2.537804   3.826944
    15  C    2.431041   5.347224   5.332062   2.805011   4.194454
    16  C    3.670084   5.843853   5.262110   4.191166   5.575081
    17  H    4.440207   5.933416   4.849490   4.761248   6.149370
    18  C    4.134004   6.576835   6.170096   4.995218   6.315331
    19  H    5.074021   7.097131   6.401390   5.916455   7.246068
    20  C    3.616874   6.855471   7.020563   4.759384   5.934019
    21  H    4.359973   7.525345   7.736534   5.580352   6.682788
    22  C    2.349042   6.459781   7.076874   3.611959   4.674660
    23  H    2.501028   6.914862   7.817573   3.864570   4.703164
    24  C    1.382663   5.698234   6.293198   2.376374   3.613609
    25  C    3.840787   3.597220   5.951934   3.463204   4.612722
    26  C    3.924392   2.334140   7.303601   3.731148   4.729252
    27  H    3.316055   2.492131   7.703709   3.301744   4.236052
    28  C    5.284593   1.371272   8.227348   5.064923   5.946759
    29  C    7.184890   1.419607  10.584846   7.095166   7.781927
    30  H    7.543275   1.968121  11.415767   7.542170   8.145810
    31  H    7.547803   1.968326  10.518793   7.531217   8.344822
    32  H    7.598514   1.968123  10.673335   7.337376   7.940233
    33  C    6.294126   2.450457   7.994114   5.934318   6.850602
    34  H    7.178483   2.661888   8.783319   6.825702   7.689801
    35  C    6.239373   3.702413   6.769047   5.762267   6.760323
    36  H    7.096713   4.469198   6.847631   6.570920   7.549775
    37  C    5.148408   4.162701   5.596611   4.648879   5.738745
    38  C    5.353017   5.603284   4.155882   4.790808   5.898998
    39  C    6.622325   6.766027   3.706603   6.025754   7.074337
    40  H    7.379864   6.838998   4.476037   6.767400   7.790805
    41  C    6.968484   7.997659   2.454029   6.389403   7.398000
    42  H    7.896389   8.786602   2.669601   7.305072   8.279181
    43  C    6.170467   8.229590   1.372540   5.657283   6.648475
    44  C    8.265156  10.571775   1.423531   7.813807   8.702203
    45  H    8.729732  11.409633   1.971658   8.315350   9.142606
    46  H    8.672434  10.656774   1.971747   8.086563   8.909626
    47  H    8.495075  10.493502   1.971885   8.149972   9.146092
    48  C    4.776797   7.308904   2.327024   4.305964   5.364128
    49  H    4.385024   7.711136   2.479738   4.003007   5.004624
    50  C    4.266986   5.954718   3.595908   3.755995   4.918809
                    6          7          8          9         10
     6  H    0.000000
     7  C    2.020922   0.000000
     8  H    2.319278   0.940086   0.000000
     9  C    3.237547   1.377247   2.017097   0.000000
    10  H    4.016938   2.019543   2.316362   0.939900   0.000000
    11  C    3.697427   2.384841   3.232844   1.379016   2.020982
    12  H    4.637213   3.228970   4.006697   2.012878   2.309352
    13  C    3.269857   2.792842   3.732724   2.419814   3.264646
    14  C    4.570912   4.312221   5.251012   3.813382   4.555512
    15  C    4.701583   5.061223   5.972022   4.907190   5.749530
    16  C    6.045592   6.436241   7.351436   6.202326   7.002130
    17  H    6.710594   6.868228   7.802057   6.453872   7.179629
    18  C    6.616764   7.345016   8.219556   7.298837   8.146488
    19  H    7.555568   8.251897   9.134920   8.148871   8.974188
    20  C    6.044473   7.124400   7.924474   7.338478   8.242852
    21  H    6.701704   7.920551   8.686080   8.208889   9.121322
    22  C    4.709405   5.930551   6.683410   6.304515   7.233131
    23  H    4.549187   6.036084   6.697462   6.601067   7.537746
    24  C    3.870907   4.757128   5.580899   4.988173   5.908088
    25  C    5.347491   4.970234   5.859941   4.377920   5.009112
    26  C    5.324463   5.190524   5.998185   4.840393   5.494625
    27  H    4.707687   4.873863   5.644933   4.777984   5.516079
    28  C    6.531578   6.264298   7.004926   5.820377   6.342220
    29  C    8.219169   8.085855   8.686688   7.784518   8.228267
    30  H    8.489771   8.504616   9.049237   8.333902   8.796287
    31  H    8.811023   8.696946   9.355997   8.329513   8.791873
    32  H    8.433385   8.079533   8.639937   7.676786   8.017408
    33  C    7.539774   6.993000   7.749344   6.300758   6.689858
    34  H    8.362036   7.786325   8.502538   7.084753   7.413795
    35  C    7.546532   6.817206   7.628031   5.937263   6.279690
    36  H    8.367443   7.513895   8.309277   6.530523   6.778000
    37  C    6.549680   5.869113   6.740065   5.003066   5.445889
    38  C    6.752477   5.966226   6.854246   4.987575   5.380534
    39  C    7.949966   7.015253   7.865906   5.916395   6.159963
    40  H    8.677808   7.671929   8.500783   6.523290   6.696160
    41  C    8.252098   7.331621   8.159715   6.256990   6.475098
    42  H    9.138321   8.152128   8.952352   7.034925   7.176064
    43  C    7.444553   6.687484   7.513627   5.763533   6.080528
    44  C    9.445898   8.678436   9.422313   7.768544   7.961157
    45  H    9.838882   9.130303   9.834346   8.291593   8.477165
    46  H    9.701504   8.743824   9.456595   7.725846   7.811118
    47  H    9.886941   9.212154  10.002224   8.308166   8.554826
    48  C    6.133572   5.556252   6.424950   4.783171   5.265918
    49  H    5.695787   5.301074   6.142535   4.711915   5.260816
    50  C    5.731806   5.140767   6.056629   4.334969   4.878478
                   11         12         13         14         15
    11  C    0.000000
    12  H    0.939894   0.000000
    13  C    1.394073   2.026413   0.000000
    14  C    2.538817   2.681992   1.523914   0.000000
    15  C    3.799566   4.114199   2.494755   1.529315   0.000000
    16  C    5.007099   5.159135   3.798777   2.546995   1.393237
    17  H    5.164062   5.144508   4.117550   2.690684   2.026337
    18  C    6.199560   6.446545   4.904207   3.824838   2.420824
    19  H    7.001500   7.174240   5.748254   4.567939   3.265919
    20  C    6.428283   6.856926   5.054445   4.324932   2.796785
    21  H    7.340283   7.787809   5.963153   5.264509   3.736568
    22  C    5.561861   6.133001   4.182235   3.830725   2.424954
    23  H    6.028308   6.690863   4.686287   4.572881   3.268753
    24  C    4.182128   4.749937   2.795240   2.539790   1.384458
    25  C    3.162903   3.119733   2.505752   1.537138   2.531850
    26  C    3.881221   4.021072   3.185854   2.606960   3.183602
    27  H    3.977866   4.323582   3.118789   2.810270   3.093657
    28  C    4.925997   4.909327   4.464339   3.852843   4.470214
    29  C    7.103051   7.118896   6.709225   6.218615   6.658893
    30  H    7.747234   7.845036   7.308602   6.905046   7.234555
    31  H    7.521097   7.470070   7.061448   6.371376   6.732249
    32  H    7.057698   6.996712   6.853819   6.455266   7.092772
    33  C    5.305286   5.036186   5.063810   4.287075   5.104774
    34  H    6.150232   5.848009   5.976562   5.226373   6.017731
    35  C    4.791269   4.335848   4.657647   3.732895   4.728311
    36  H    5.391719   4.811223   5.391723   4.457691   5.480824
    37  C    3.727421   3.312982   3.465087   2.425973   3.531172
    38  C    3.639604   3.073485   3.484450   2.422266   3.528869
    39  C    4.641796   3.920252   4.694413   3.726454   4.720993
    40  H    5.287986   4.511372   5.420696   4.451065   5.469677
    41  C    5.053876   4.370809   5.124174   4.281897   5.101867
    42  H    5.886341   5.157586   6.037535   5.221484   6.016137
    43  C    4.612513   4.117785   4.539245   3.843590   4.464817
    44  C    6.782953   6.272588   6.805097   6.196283   6.611961
    45  H    7.392018   6.944438   7.404172   6.887743   7.203236
    46  H    6.786140   6.176212   6.990451   6.452128   7.064178
    47  H    7.221299   6.700976   7.122146   6.320428   6.632193
    48  C    3.583029   3.303059   3.259754   2.598933   3.185043
    49  H    3.652717   3.584087   3.201619   2.802104   3.096204
    50  C    2.979737   2.680860   2.540345   1.527393   2.536412
                   16         17         18         19         20
    16  C    0.000000
    17  H    0.939967   0.000000
    18  C    1.382549   2.016643   0.000000
    19  H    2.024424   2.313746   0.940171   0.000000
    20  C    2.392422   3.236788   1.381910   2.023651   0.000000
    21  H    3.240887   4.015491   2.022553   2.322417   0.939799
    22  C    2.758029   3.697902   2.386541   3.234626   1.373023
    23  H    3.698160   4.638031   3.236862   4.016752   2.017066
    24  C    2.375012   3.225969   2.754094   3.694253   2.391892
    25  C    3.212631   3.158800   4.450145   5.082659   5.052153
    26  C    3.888059   4.009137   4.877725   5.527473   5.256226
    27  H    3.947821   4.277667   4.770384   5.500153   4.899693
    28  C    4.948941   4.910443   5.883921   6.404259   6.359957
    29  C    7.020786   7.008651   7.717241   8.137308   8.070168
    30  H    7.619843   7.689488   8.204462   8.631955   8.430904
    31  H    6.902634   6.802332   7.552293   7.868562   8.022580
    32  H    7.529681   7.460266   8.345060   8.788269   8.747304
    33  C    5.395642   5.112241   6.444965   6.847921   7.154720
    34  H    6.242899   5.925310   7.237603   7.583475   7.959805
    35  C    4.938511   4.485671   6.136436   6.504935   7.012784
    36  H    5.578809   5.010603   6.779891   7.067352   7.750166
    37  C    3.857946   3.451742   5.163518   5.623717   6.020507
    38  C    3.727858   3.181097   5.086837   5.494728   6.051155
    39  C    4.697373   3.992744   5.980568   6.238567   7.067137
    40  H    5.391726   4.636774   6.651071   6.850399   7.781848
    41  C    5.006174   4.328227   6.190315   6.402367   7.263917
    42  H    5.839839   5.117325   6.966647   7.100721   8.081208
    43  C    4.458441   3.961006   5.564106   5.856905   6.498877
    44  C    6.380115   5.846934   7.225709   7.317983   8.176803
    45  H    6.972869   6.510377   7.711472   7.788496   8.583450
    46  H    6.931022   6.361315   7.886702   8.017328   8.855572
    47  H    6.207419   5.584282   6.986177   6.963836   8.041247
    48  C    3.439051   3.163215   4.607348   5.077857   5.388539
    49  H    3.456105   3.402302   4.463825   4.997842   5.058186
    50  C    2.971948   2.681925   4.322327   4.868524   5.124262
                   21         22         23         24         25
    21  H    0.000000
    22  C    2.014302   0.000000
    23  H    2.315649   0.940163   0.000000
    24  C    3.242554   1.394411   2.036230   0.000000
    25  C    5.953045   4.669956   5.402363   3.493195   0.000000
    26  C    6.081448   4.780699   5.382258   3.749693   1.373309
    27  H    5.686631   4.261683   4.745268   3.301699   2.020744
    28  C    7.126572   6.018496   6.611318   5.092348   2.384469
    29  C    8.691614   7.780346   8.239184   7.076312   4.781487
    30  H    8.988974   8.106036   8.475969   7.501468   5.537546
    31  H    8.613211   7.897621   8.421437   7.264394   4.908228
    32  H    9.420880   8.399902   8.876472   7.576011   4.980154
    33  C    7.943191   6.962618   7.652789   5.987221   2.760318
    34  H    8.713698   7.809601   8.484646   6.880839   3.700346
    35  C    7.852738   6.890269   7.669187   5.830869   2.406054
    36  H    8.580576   7.703981   8.511325   6.653369   3.259778
    37  C    6.908401   5.838311   6.640015   4.705275   1.408292
    38  C    6.945685   5.948936   6.794003   4.821997   2.340375
    39  C    7.921451   7.100107   7.969206   6.043178   3.707136
    40  H    8.623029   7.855088   8.732947   6.805375   4.154464
    41  C    8.079406   7.343269   8.196429   6.363574   4.692741
    42  H    8.866809   8.222319   9.079698   7.279090   5.578400
    43  C    7.298582   6.511832   7.314074   5.585859   4.693781
    44  C    8.843004   8.362690   9.126439   7.635734   7.072381
    45  H    9.196282   8.772575   9.486921   8.124506   7.871840
    46  H    9.568964   8.967846   9.738896   8.130792   7.211142
    47  H    8.669737   8.375845   9.183843   7.729289   7.087903
    48  C    6.238575   5.238231   6.015104   4.236587   3.714576
    49  H    5.874056   4.822815   5.525621   3.901562   4.160158
    50  C    6.036411   4.898634   5.709712   3.746645   2.363616
                   26         27         28         29         30
    26  C    0.000000
    27  H    0.939950   0.000000
    28  C    1.396608   2.042045   0.000000
    29  C    3.644350   3.905141   2.400834   0.000000
    30  H    4.300373   4.382113   3.200951   0.970012   0.000000
    31  H    3.903282   4.272700   2.620488   0.970186   1.584251
    32  H    3.957291   4.319956   2.650932   0.970265   1.584986
    33  C    2.419210   3.269783   1.393774   2.850884   3.806815
    34  H    3.265646   4.048613   2.031954   2.559325   3.522927
    35  C    2.800648   3.740476   2.416827   4.240794   5.193124
    36  H    3.740486   4.680244   3.263578   4.800801   5.769958
    37  C    2.433604   3.281168   2.794362   5.053678   5.939723
    38  C    3.654540   4.360084   4.245170   6.527640   7.409218
    39  C    4.978571   5.726500   5.395745   7.542568   8.466669
    40  H    5.304728   6.132448   5.485832   7.453773   8.405881
    41  C    6.040647   6.684976   6.633878   8.855997   9.761620
    42  H    6.908730   7.584404   7.417622   9.570910  10.495814
    43  C    6.061938   6.541192   6.912583   9.254008  10.101907
    44  C    8.438589   8.917351   9.241261  11.539632  12.408716
    45  H    9.230207   9.654677  10.094839  12.416947  13.270741
    46  H    8.583704   9.120891   9.303260  11.568932  12.463910
    47  H    8.434046   8.950114   9.166339  11.404850  12.279853
    48  C    5.035402   5.387699   6.063088   8.453885   9.239846
    49  H    5.387868   5.589333   6.543045   8.935358   9.666684
    50  C    3.712472   4.157479   4.693221   7.084090   7.878296
                   31         32         33         34         35
    31  H    0.000000
    32  H    1.584092   0.000000
    33  C    2.778653   2.795266   0.000000
    34  H    2.363808   2.341034   0.940054   0.000000
    35  C    4.109457   4.148297   1.391493   2.029857   0.000000
    36  H    4.577350   4.602966   2.031327   2.328255   0.939945
    37  C    5.023149   5.089692   2.411894   3.258708   1.392536
    38  C    6.465472   6.555675   3.847934   4.636308   2.632550
    39  C    7.390888   7.492264   4.733442   5.374636   3.368446
    40  H    7.242813   7.331022   4.607401   5.110460   3.218466
    41  C    8.714480   8.838341   6.082462   6.755577   4.738714
    42  H    9.387884   9.514491   6.755919   7.358238   5.380052
    43  C    9.185757   9.321906   6.630454   7.413817   5.397652
    44  C   11.399966  11.590805   8.843502   9.558606   7.539006
    45  H   12.291625  12.486496   9.753711  10.487844   8.466597
    46  H   11.447152  11.539363   8.805436   9.476463   7.460518
    47  H   11.185965  11.493368   8.712319   9.391504   7.408167
    48  C    8.468634   8.592066   6.037882   6.905496   4.980200
    49  H    8.997655   9.122679   6.683063   7.582046   5.728623
    50  C    7.115927   7.217610   4.689405   5.574950   3.708809
                   36         37         38         39         40
    36  H    0.000000
    37  C    2.032282   0.000000
    38  C    2.883978   1.476461   0.000000
    39  C    3.223009   2.623447   1.388154   0.000000
    40  H    2.817280   2.872104   2.029138   0.939940   0.000000
    41  C    4.616727   3.844134   2.409509   1.395695   2.036085
    42  H    5.120028   4.632551   3.257058   2.034724   2.335071
    43  C    5.491544   4.238753   2.787071   2.416328   3.263901
    44  C    7.458161   6.513808   5.042551   4.243156   4.807771
    45  H    8.412529   7.399357   5.931306   5.195789   5.776036
    46  H    7.293787   6.526230   5.059305   4.105701   4.554238
    47  H    7.284321   6.459233   5.026721   4.155994   4.641679
    48  C    5.308943   3.649498   2.425488   2.796888   3.736801
    49  H    6.136893   4.356305   3.273666   3.736951   4.676839
    50  C    4.159045   2.335773   1.403758   2.405556   3.258116
                   41         42         43         44         45
    41  C    0.000000
    42  H    0.940302   0.000000
    43  C    1.391981   2.031775   0.000000
    44  C    2.853116   2.571101   2.397621   0.000000
    45  H    3.807693   3.528896   3.200427   0.970164   0.000000
    46  H    2.736978   2.250802   2.630622   0.969906   1.583966
    47  H    2.842442   2.483129   2.630661   0.970048   1.584403
    48  C    2.416154   3.263242   1.393754   3.632646   4.293877
    49  H    3.266077   4.045277   2.038510   3.889332   4.371822
    50  C    2.764197   3.704454   2.386609   4.775063   5.535558
                   46         47         48         49         50
    46  H    0.000000
    47  H    1.583933   0.000000
    48  C    3.957481   3.872357   0.000000
    49  H    4.334790   4.218785   0.940131   0.000000
    50  C    4.976434   4.891498   1.375297   2.021498   0.000000
 Stoichiometry    C27H20O3
 Framework group  C1[X(C27H20O3)]
 Deg. of freedom   144
 Full point group                 C1      NOp   1
 Largest Abelian subgroup         C1      NOp   1
 Largest concise Abelian subgroup C1      NOp   1
                         Standard orientation:                         
 ---------------------------------------------------------------------
 Center     Atomic      Atomic             Coordinates (Angstroms)
 Number     Number       Type             X           Y           Z
 ---------------------------------------------------------------------
      1          8           0       -1.025604    3.055580   -0.031550
      2          8           0       -4.529029   -1.519176   -0.262260
      3          8           0        4.919698   -0.374200    0.038007
      4          6           0       -0.717053    2.460317    1.179721
      5          6           0       -1.025372    3.210724    2.313383
      6          1           0       -1.410801    4.063825    2.229167
      7          6           0       -0.758371    2.686424    3.556280
      8          1           0       -0.981026    3.175129    4.327872
      9          6           0       -0.166317    1.448738    3.676333
     10          1           0        0.036262    1.103635    4.526790
     11          6           0        0.128379    0.716893    2.545297
     12          1           0        0.529628   -0.128120    2.636691
     13          6           0       -0.155159    1.201337    1.269226
     14          6           0        0.044473    0.325477    0.038238
     15          6           0       -0.019719    1.189728   -1.221823
     16          6           0        0.411776    0.702629   -2.453755
     17          1           0        0.793792   -0.154910   -2.500961
     18          6           0        0.289946    1.453489   -3.608228
     19          1           0        0.581103    1.103557   -4.430843
     20          6           0       -0.260886    2.719564   -3.550652
     21          1           0       -0.347180    3.230221   -4.334875
     22          6           0       -0.682031    3.232303   -2.348601
     23          1           0       -1.049832    4.096466   -2.305558
     24          6           0       -0.561146    2.463566   -1.191531
     25          6           0       -1.017971   -0.784988    0.008727
     26          6           0       -2.378284   -0.627768   -0.095235
     27          1           0       -2.757985    0.230436   -0.148340
     28          6           0       -3.187570   -1.765718   -0.120519
     29          6           0       -5.415234   -2.621577   -0.383238
     30          1           0       -6.319505   -2.296229   -0.515016
     31          1           0       -5.153078   -3.165218   -1.142837
     32          1           0       -5.377303   -3.156621    0.425282
     33          6           0       -2.618981   -3.033487   -0.010622
     34          1           0       -3.169804   -3.795181   -0.021518
     35          6           0       -1.240720   -3.178373    0.114508
     36          1           0       -0.864631   -4.035519    0.200270
     37          6           0       -0.418085   -2.054795    0.113674
     38          6           0        1.046734   -1.876222    0.162211
     39          6           0        2.102255   -2.776453    0.211499
     40          1           0        1.931809   -3.699353    0.263368
     41          6           0        3.416991   -2.308777    0.184785
     42          1           0        4.132001   -2.918408    0.220518
     43          6           0        3.672197   -0.942803    0.103568
     44          6           0        6.038320   -1.233857   -0.152040
     45          1           0        6.851216   -0.705016   -0.179324
     46          1           0        6.088603   -1.866109    0.581749
     47          1           0        5.937513   -1.715888   -0.987789
     48          6           0        2.618535   -0.030780    0.079897
     49          1           0        2.788417    0.893332    0.048219
     50          6           0        1.326673   -0.501871    0.104490
 ---------------------------------------------------------------------
 Rotational constants (GHZ):           0.1852471           0.1369393           0.1188649
 Standard basis: 6-311++G(d,p) (5D, 7F)
 There are   830 symmetry adapted cartesian basis functions of A   symmetry.
 There are   800 symmetry adapted basis functions of A   symmetry.
   800 basis functions,  1260 primitive gaussians,   830 cartesian basis functions
   103 alpha electrons      103 beta electrons
       nuclear repulsion energy      2821.0485017783 Hartrees.
 NAtoms=   50 NActive=   50 NUniq=   50 SFac= 1.00D+00 NAtFMM=   60 NAOKFM=F Big=F
 Integral buffers will be    131072 words long.
 Raffenetti 2 integral format.
 Two-electron integral symmetry is turned on.
 Nuclear repulsion after empirical dispersion term =     2821.0053561999 Hartrees.
 One-electron integrals computed using PRISM.
 NBasis=   800 RedAO= T EigKep=  1.05D-06  NBF=   800
 NBsUse=   785 1.00D-06 EigRej=  8.59D-07 NBFU=   785
 ExpMin= 3.60D-02 ExpMax= 8.59D+03 ExpMxC= 1.30D+03 IAcc=3 IRadAn=         5 AccDes= 0.00D+00
 Harris functional with IExCor= 4639 and IRadAn=       5 diagonalized for initial guess.
 HarFok:  IExCor= 4639 AccDes= 0.00D+00 IRadAn=         5 IDoV= 1 UseB2=F ITyADJ=14
 ICtDFT=  3500011 ScaDFX=  1.000000  1.000000  1.000000  1.000000
 FoFCou: FMM=F IPFlag=           0 FMFlag=      100000 FMFlg1=           0
         NFxFlg=           0 DoJE=T BraDBF=F KetDBF=T FulRan=T
         wScrn=  0.000000 ICntrl=       500 IOpCl=  0 I1Cent=   200000004 NGrid=           0
         NMat0=    1 NMatS0=      1 NMatT0=    0 NMatD0=    1 NMtDS0=    0 NMtDT0=    0
 Petite list used in FoFCou.
 Requested convergence on RMS density matrix=1.00D-08 within 128 cycles.
 Requested convergence on MAX density matrix=1.00D-06.
 Requested convergence on             energy=1.00D-06.
 No special actions if energy rises.
 SCF Done:  E(RwB97XD) =  -1266.15021757     A.U. after   17 cycles
            NFock= 17  Conv=0.65D-08     -V/T= 2.0001
 DoSCS=F DFT=T ScalE2(SS,OS)=  1.000000  1.000000
 Range of M.O.s used for correlation:     1   785
 NBasis=   800 NAE=   103 NBE=   103 NFC=     0 NFV=     0
 NROrb=    785 NOA=   103 NOB=   103 NVA=   682 NVB=   682

 **** Warning!!: The largest alpha MO coefficient is  0.12765620D+03

          Differentiating once with respect to electric field.
                with respect to dipole field.
          Electric field/nuclear overlap derivatives assumed to be zero.
          There are    15 degrees of freedom in the 1st order CPHF.  IDoFFX=0 NUNeed=    15.
 LinEq1:  Iter=  0 NonCon=    15 RMS=5.50D-02 Max=9.80D+00 NDo=    15
 AX will form    15 AO Fock derivatives at one time.
 LinEq1:  Iter=  1 NonCon=    15 RMS=2.80D-02 Max=2.72D+00 NDo=    15
 LinEq1:  Iter=  2 NonCon=    15 RMS=1.42D-02 Max=2.05D+00 NDo=    15
 LinEq1:  Iter=  3 NonCon=    15 RMS=8.86D-03 Max=1.33D+00 NDo=    15
 LinEq1:  Iter=  4 NonCon=    15 RMS=4.61D-03 Max=3.78D-01 NDo=    15
 LinEq1:  Iter=  5 NonCon=    15 RMS=2.95D-03 Max=2.12D-01 NDo=    15
 LinEq1:  Iter=  6 NonCon=    15 RMS=1.65D-03 Max=1.43D-01 NDo=    15
 LinEq1:  Iter=  7 NonCon=    15 RMS=1.09D-03 Max=7.33D-02 NDo=    15
 LinEq1:  Iter=  8 NonCon=    15 RMS=5.51D-04 Max=3.26D-02 NDo=    15
 LinEq1:  Iter=  9 NonCon=    15 RMS=3.28D-04 Max=2.76D-02 NDo=    15
 LinEq1:  Iter= 10 NonCon=    15 RMS=1.58D-04 Max=1.49D-02 NDo=    15
 LinEq1:  Iter= 11 NonCon=    15 RMS=1.02D-04 Max=8.29D-03 NDo=    15
 LinEq1:  Iter= 12 NonCon=    15 RMS=5.06D-05 Max=4.20D-03 NDo=    15
 LinEq1:  Iter= 13 NonCon=    15 RMS=2.22D-05 Max=2.23D-03 NDo=    15
 LinEq1:  Iter= 14 NonCon=    15 RMS=1.17D-05 Max=6.16D-04 NDo=    15
 LinEq1:  Iter= 15 NonCon=    15 RMS=5.50D-06 Max=3.49D-04 NDo=    15
 LinEq1:  Iter= 16 NonCon=    15 RMS=2.81D-06 Max=1.60D-04 NDo=    15
 LinEq1:  Iter= 17 NonCon=    15 RMS=1.29D-06 Max=7.15D-05 NDo=    15
 LinEq1:  Iter= 18 NonCon=    15 RMS=6.81D-07 Max=2.77D-05 NDo=    15
 LinEq1:  Iter= 19 NonCon=    15 RMS=3.13D-07 Max=1.97D-05 NDo=    15
 LinEq1:  Iter= 20 NonCon=    15 RMS=1.69D-07 Max=1.22D-05 NDo=    15
 LinEq1:  Iter= 21 NonCon=    15 RMS=7.27D-08 Max=5.59D-06 NDo=    15
 LinEq1:  Iter= 22 NonCon=    15 RMS=3.28D-08 Max=3.47D-06 NDo=    15
 LinEq1:  Iter= 23 NonCon=    13 RMS=1.93D-08 Max=1.23D-06 NDo=    15
 LinEq1:  Iter= 24 NonCon=    12 RMS=7.73D-09 Max=5.85D-07 NDo=    15
 LinEq1:  Iter= 25 NonCon=     8 RMS=4.28D-09 Max=2.83D-07 NDo=    15
 LinEq1:  Iter= 26 NonCon=     1 RMS=2.03D-09 Max=1.20D-07 NDo=     8
 LinEq1:  Iter= 27 NonCon=     0 RMS=9.87D-10 Max=6.72D-08 NDo=     1
 Linear equations converged to 1.000D-08 1.000D-07 after    27 iterations.
 Isotropic polarizability for W=    0.000000      302.28 Bohr**3.
 Isotropic polarizability for W=    0.069425      317.10 Bohr**3.
 Isotropic polarizability for W=    0.077318      321.18 Bohr**3.
 Isotropic polarizability for W=    0.077541      321.31 Bohr**3.
 Isotropic polarizability for W=    0.093732      332.20 Bohr**3.
 End of Minotr F.D. properties on file   721 Mask=      11 NFrqRd=     5 NDeriv=     1 ND12= 1 LenFil=     142:
 Frequencies=    0.000000    0.069425    0.077318    0.077541    0.093732
 Property number 1 -- Alpha(-w,w) frequency  1    0.000000:
                 1             2             3 
      1   0.341785D+03 -0.864432D+01 -0.188404D+01
      2  -0.864432D+01  0.297968D+03 -0.265717D+01
      3  -0.188404D+01 -0.265717D+01  0.267086D+03
 Property number 1 -- Alpha(-w,w) frequency  2    0.069425:
                 1             2             3 
      1   0.363470D+03 -0.809179D+01 -0.182585D+01
      2  -0.809179D+01  0.310237D+03 -0.275021D+01
      3  -0.182585D+01 -0.275021D+01  0.277581D+03
 Property number 1 -- Alpha(-w,w) frequency  3    0.077318:
                 1             2             3 
      1   0.369658D+03 -0.789303D+01 -0.179811D+01
      2  -0.789303D+01  0.313516D+03 -0.277364D+01
      3  -0.179811D+01 -0.277364D+01  0.280366D+03
 Property number 1 -- Alpha(-w,w) frequency  4    0.077541:
                 1             2             3 
      1   0.369850D+03 -0.788657D+01 -0.179717D+01
      2  -0.788657D+01  0.313617D+03 -0.277435D+01
      3  -0.179717D+01 -0.277435D+01  0.280451D+03
 Property number 1 -- Alpha(-w,w) frequency  5    0.093732:
                 1             2             3 
      1   0.386852D+03 -0.724923D+01 -0.169509D+01
      2  -0.724923D+01  0.322122D+03 -0.283192D+01
      3  -0.169509D+01 -0.283192D+01  0.287626D+03
 Property number 5 -- Beta(-w,w,0) frequency  1    0.000000:
                 1 
      1   0.139315D+03
      2  -0.171307D+03
      3  -0.191902D+02
      4   0.403365D+02
      5   0.156508D+02
      6   0.532612D+02
      7  -0.171307D+03
      8  -0.191902D+02
      9  -0.980416D+01
     10   0.156508D+02
     11  -0.360744D+01
     12  -0.158245D+03
     13   0.403365D+02
     14   0.156508D+02
     15  -0.360744D+01
     16   0.532612D+02
     17  -0.158245D+03
     18   0.820207D+01
 Property number 5 -- Beta(-w,w,0) frequency  2    0.069425:
                 1 
      1   0.180770D+03
      2  -0.195205D+03
      3  -0.204766D+02
      4   0.512366D+02
      5   0.173523D+02
      6   0.618996D+02
      7  -0.224588D+03
      8  -0.263483D+02
      9  -0.475482D+01
     10   0.172682D+02
     11  -0.408235D+01
     12  -0.180420D+03
     13   0.552026D+02
     14   0.177124D+02
     15  -0.284648D+01
     16   0.571533D+02
     17  -0.170657D+03
     18   0.722502D+01
 Property number 5 -- Beta(-w,w,0) frequency  3    0.077318:
                 1 
      1   0.194861D+03
      2  -0.202354D+03
      3  -0.210063D+02
      4   0.546425D+02
      5   0.177747D+02
      6   0.644283D+02
      7  -0.243165D+03
      8  -0.290563D+02
      9  -0.289405D+01
     10   0.176344D+02
     11  -0.422720D+01
     12  -0.186748D+03
     13   0.600869D+02
     14   0.182762D+02
     15  -0.254524D+01
     16   0.580246D+02
     17  -0.173468D+03
     18   0.687080D+01
 Property number 5 -- Beta(-w,w,0) frequency  4    0.077541:
                 1 
      1   0.195317D+03
      2  -0.202578D+03
      3  -0.210242D+02
      4   0.547505D+02
      5   0.177873D+02
      6   0.645072D+02
      7  -0.243770D+03
      8  -0.291458D+02
      9  -0.283326D+01
     10   0.176450D+02
     11  -0.423179D+01
     12  -0.186944D+03
     13   0.602435D+02
     14   0.182935D+02
     15  -0.253530D+01
     16   0.580498D+02
     17  -0.173550D+03
     18   0.685929D+01
 Property number 5 -- Beta(-w,w,0) frequency  5    0.093732:
                 1 
      1   0.240316D+03
      2  -0.223236D+03
      3  -0.229974D+02
      4   0.648049D+02
      5   0.187824D+02
      6   0.715313D+02
      7  -0.304636D+03
      8  -0.384798D+02
      9   0.323047D+01
     10   0.183544D+02
     11  -0.466307D+01
     12  -0.204208D+03
     13   0.753152D+02
     14   0.197857D+02
     15  -0.152166D+01
     16   0.598427D+02
     17  -0.179494D+03
     18   0.573322D+01
 End of Minotr F.D. properties file   722 does not exist.
 End of Minotr F.D. properties file   788 does not exist.

 **********************************************************************

            Population analysis using the SCF Density.

 **********************************************************************

 Orbital symmetries:
       Occupied  (A) (A) (A) (A) (A) (A) (A) (A) (A) (A) (A) (A)
                 (A) (A) (A) (A) (A) (A) (A) (A) (A) (A) (A) (A)
                 (A) (A) (A) (A) (A) (A) (A) (A) (A) (A) (A) (A)
                 (A) (A) (A) (A) (A) (A) (A) (A) (A) (A) (A) (A)
                 (A) (A) (A) (A) (A) (A) (A) (A) (A) (A) (A) (A)
                 (A) (A) (A) (A) (A) (A) (A) (A) (A) (A) (A) (A)
                 (A) (A) (A) (A) (A) (A) (A) (A) (A) (A) (A) (A)
                 (A) (A) (A) (A) (A) (A) (A) (A) (A) (A) (A) (A)
                 (A) (A) (A) (A) (A) (A) (A)
       Virtual   (A) (A) (A) (A) (A) (A) (A) (A) (A) (A) (A) (A)
                 (A) (A) (A) (A) (A) (A) (A) (A) (A) (A) (A) (A)
                 (A) (A) (A) (A) (A) (A) (A) (A) (A) (A) (A) (A)
                 (A) (A) (A) (A) (A) (A) (A) (A) (A) (A) (A) (A)
                 (A) (A) (A) (A) (A) (A) (A) (A) (A) (A) (A) (A)
                 (A) (A) (A) (A) (A) (A) (A) (A) (A) (A) (A) (A)
                 (A) (A) (A) (A) (A) (A) (A) (A) (A) (A) (A) (A)
                 (A) (A) (A) (A) (A) (A) (A) (A) (A) (A) (A) (A)
                 (A) (A) (A) (A) (A) (A) (A) (A) (A) (A) (A) (A)
                 (A) (A) (A) (A) (A) (A) (A) (A) (A) (A) (A) (A)
                 (A) (A) (A) (A) (A) (A) (A) (A) (A) (A) (A) (A)
                 (A) (A) (A) (A) (A) (A) (A) (A) (A) (A) (A) (A)
                 (A) (A) (A) (A) (A) (A) (A) (A) (A) (A) (A) (A)
                 (A) (A) (A) (A) (A) (A) (A) (A) (A) (A) (A) (A)
                 (A) (A) (A) (A) (A) (A) (A) (A) (A) (A) (A) (A)
                 (A) (A) (A) (A) (A) (A) (A) (A) (A) (A) (A) (A)
                 (A) (A) (A) (A) (A) (A) (A) (A) (A) (A) (A) (A)
                 (A) (A) (A) (A) (A) (A) (A) (A) (A) (A) (A) (A)
                 (A) (A) (A) (A) (A) (A) (A) (A) (A) (A) (A) (A)
                 (A) (A) (A) (A) (A) (A) (A) (A) (A) (A) (A) (A)
                 (A) (A) (A) (A) (A) (A) (A) (A) (A) (A) (A) (A)
                 (A) (A) (A) (A) (A) (A) (A) (A) (A) (A) (A) (A)
                 (A) (A) (A) (A) (A) (A) (A) (A) (A) (A) (A) (A)
                 (A) (A) (A) (A) (A) (A) (A) (A) (A) (A) (A) (A)
                 (A) (A) (A) (A) (A) (A) (A) (A) (A) (A) (A) (A)
                 (A) (A) (A) (A) (A) (A) (A) (A) (A) (A) (A) (A)
                 (A) (A) (A) (A) (A) (A) (A) (A) (A) (A) (A) (A)
                 (A) (A) (A) (A) (A) (A) (A) (A) (A) (A) (A) (A)
                 (A) (A) (A) (A) (A) (A) (A) (A) (A) (A) (A) (A)
                 (A) (A) (A) (A) (A) (A) (A) (A) (A) (A) (A) (A)
                 (A) (A) (A) (A) (A) (A) (A) (A) (A) (A) (A) (A)
                 (A) (A) (A) (A) (A) (A) (A) (A) (A) (A) (A) (A)
                 (A) (A) (A) (A) (A) (A) (A) (A) (A) (A) (A) (A)
                 (A) (A) (A) (A) (A) (A) (A) (A) (A) (A) (A) (A)
                 (A) (A) (A) (A) (A) (A) (A) (A) (A) (A) (A) (A)
                 (A) (A) (A) (A) (A) (A) (A) (A) (A) (A) (A) (A)
                 (A) (A) (A) (A) (A) (A) (A) (A) (A) (A) (A) (A)
                 (A) (A) (A) (A) (A) (A) (A) (A) (A) (A) (A) (A)
                 (A) (A) (A) (A) (A) (A) (A) (A) (A) (A) (A) (A)
                 (A) (A) (A) (A) (A) (A) (A) (A) (A) (A) (A) (A)
                 (A) (A) (A) (A) (A) (A) (A) (A) (A) (A) (A) (A)
                 (A) (A) (A) (A) (A) (A) (A) (A) (A) (A) (A) (A)
                 (A) (A) (A) (A) (A) (A) (A) (A) (A) (A) (A) (A)
                 (A) (A) (A) (A) (A) (A) (A) (A) (A) (A) (A) (A)
                 (A) (A) (A) (A) (A) (A) (A) (A) (A) (A) (A) (A)
                 (A) (A) (A) (A) (A) (A) (A) (A) (A) (A) (A) (A)
                 (A) (A) (A) (A) (A) (A) (A) (A) (A) (A) (A) (A)
                 (A) (A) (A) (A) (A) (A) (A) (A) (A) (A) (A) (A)
                 (A) (A) (A) (A) (A) (A) (A) (A) (A) (A) (A) (A)
                 (A) (A) (A) (A) (A) (A) (A) (A) (A) (A) (A) (A)
                 (A) (A) (A) (A) (A) (A) (A) (A) (A) (A) (A) (A)
                 (A) (A) (A) (A) (A) (A) (A) (A) (A) (A) (A) (A)
                 (A) (A) (A) (A) (A) (A) (A) (A) (A) (A) (A) (A)
                 (A) (A) (A) (A) (A) (A) (A) (A) (A) (A) (A) (A)
                 (A) (A) (A) (A) (A) (A) (A) (A) (A) (A) (A) (A)
                 (A) (A) (A) (A) (A) (A) (A) (A) (A) (A) (A) (A)
                 (A) (A) (A) (A) (A) (A) (A) (A) (A) (A)
 The electronic state is 1-A.
 Alpha  occ. eigenvalues --  -19.29126 -19.27408 -19.27241 -10.34815 -10.34779
 Alpha  occ. eigenvalues --  -10.34776 -10.34654 -10.32312 -10.29875 -10.29711
 Alpha  occ. eigenvalues --  -10.29706 -10.29657 -10.29310 -10.29280 -10.28993
 Alpha  occ. eigenvalues --  -10.28841 -10.27779 -10.27596 -10.27317 -10.26986
 Alpha  occ. eigenvalues --  -10.26921 -10.26826 -10.26733 -10.26715 -10.26663
 Alpha  occ. eigenvalues --  -10.26654 -10.26628 -10.26430 -10.26153 -10.26024
 Alpha  occ. eigenvalues --   -1.18640  -1.16639  -1.16564  -1.00330  -0.97178
 Alpha  occ. eigenvalues --   -0.96248  -0.95431  -0.92087  -0.89018  -0.87415
 Alpha  occ. eigenvalues --   -0.87028  -0.86484  -0.85994  -0.84865  -0.84105
 Alpha  occ. eigenvalues --   -0.82915  -0.79714  -0.78809  -0.75390  -0.74277
 Alpha  occ. eigenvalues --   -0.73056  -0.71470  -0.70764  -0.69033  -0.68712
 Alpha  occ. eigenvalues --   -0.66769  -0.65807  -0.64322  -0.62908  -0.61896
 Alpha  occ. eigenvalues --   -0.59713  -0.59641  -0.58987  -0.57952  -0.57827
 Alpha  occ. eigenvalues --   -0.57143  -0.56973  -0.56204  -0.55966  -0.55451
 Alpha  occ. eigenvalues --   -0.54549  -0.54468  -0.53599  -0.53234  -0.52584
 Alpha  occ. eigenvalues --   -0.51894  -0.51294  -0.51239  -0.48195  -0.48127
 Alpha  occ. eigenvalues --   -0.47952  -0.47602  -0.46876  -0.46198  -0.46073
 Alpha  occ. eigenvalues --   -0.45311  -0.44951  -0.44320  -0.43752  -0.42681
 Alpha  occ. eigenvalues --   -0.42236  -0.41886  -0.41236  -0.40191  -0.39812
 Alpha  occ. eigenvalues --   -0.34969  -0.33484  -0.33165  -0.32434  -0.32303
 Alpha  occ. eigenvalues --   -0.31261  -0.28673  -0.26517
 Alpha virt. eigenvalues --    0.03056   0.03671   0.04184   0.04368   0.04509
 Alpha virt. eigenvalues --    0.04742   0.04956   0.05128   0.05169   0.05912
 Alpha virt. eigenvalues --    0.06249   0.06279   0.06441   0.07029   0.07384
 Alpha virt. eigenvalues --    0.07494   0.07734   0.07792   0.07924   0.08591
 Alpha virt. eigenvalues --    0.08782   0.09280   0.09388   0.09537   0.10790
 Alpha virt. eigenvalues --    0.10860   0.11328   0.11519   0.11919   0.12392
 Alpha virt. eigenvalues --    0.12805   0.13167   0.14214   0.14621   0.14660
 Alpha virt. eigenvalues --    0.14862   0.15192   0.15660   0.15870   0.15958
 Alpha virt. eigenvalues --    0.16106   0.16345   0.16611   0.16935   0.17004
 Alpha virt. eigenvalues --    0.17119   0.17216   0.17822   0.17923   0.18024
 Alpha virt. eigenvalues --    0.18382   0.18451   0.18641   0.18945   0.19061
 Alpha virt. eigenvalues --    0.19286   0.19363   0.19829   0.19937   0.20118
 Alpha virt. eigenvalues --    0.20322   0.20518   0.20579   0.20655   0.21150
 Alpha virt. eigenvalues --    0.21289   0.21580   0.21732   0.22023   0.22136
 Alpha virt. eigenvalues --    0.22516   0.22528   0.22887   0.22913   0.23135
 Alpha virt. eigenvalues --    0.23506   0.23951   0.24047   0.24516   0.24601
 Alpha virt. eigenvalues --    0.25045   0.25230   0.25317   0.25615   0.25783
 Alpha virt. eigenvalues --    0.26376   0.26628   0.26743   0.27005   0.27268
 Alpha virt. eigenvalues --    0.27526   0.28169   0.28324   0.28532   0.28727
 Alpha virt. eigenvalues --    0.28867   0.29180   0.29248   0.29758   0.30029
 Alpha virt. eigenvalues --    0.30393   0.30596   0.30793   0.31142   0.31339
 Alpha virt. eigenvalues --    0.31702   0.31898   0.31963   0.32295   0.32493
 Alpha virt. eigenvalues --    0.32854   0.32991   0.33768   0.33887   0.33972
 Alpha virt. eigenvalues --    0.34140   0.34352   0.34685   0.34912   0.35037
 Alpha virt. eigenvalues --    0.35480   0.35747   0.36062   0.36373   0.36626
 Alpha virt. eigenvalues --    0.36729   0.37190   0.37219   0.37622   0.37752
 Alpha virt. eigenvalues --    0.38073   0.38320   0.38607   0.38944   0.39218
 Alpha virt. eigenvalues --    0.39446   0.39722   0.39883   0.40058   0.40296
 Alpha virt. eigenvalues --    0.40685   0.41242   0.41331   0.41789   0.41983
 Alpha virt. eigenvalues --    0.42168   0.42256   0.42522   0.42972   0.43124
 Alpha virt. eigenvalues --    0.43403   0.43769   0.43985   0.44154   0.44396
 Alpha virt. eigenvalues --    0.44707   0.45120   0.45365   0.45693   0.45804
 Alpha virt. eigenvalues --    0.46235   0.46532   0.46802   0.47589   0.47744
 Alpha virt. eigenvalues --    0.48060   0.48456   0.48584   0.48857   0.49538
 Alpha virt. eigenvalues --    0.50050   0.50562   0.50837   0.51613   0.52113
 Alpha virt. eigenvalues --    0.52945   0.53326   0.53966   0.54353   0.54720
 Alpha virt. eigenvalues --    0.55125   0.55437   0.56001   0.56059   0.56842
 Alpha virt. eigenvalues --    0.59310   0.59882   0.61102   0.61845   0.62468
 Alpha virt. eigenvalues --    0.62703   0.64402   0.64679   0.65194   0.65823
 Alpha virt. eigenvalues --    0.66458   0.66699   0.66808   0.67015   0.67257
 Alpha virt. eigenvalues --    0.67843   0.68301   0.68731   0.69088   0.69391
 Alpha virt. eigenvalues --    0.69765   0.70114   0.70391   0.71023   0.71573
 Alpha virt. eigenvalues --    0.71874   0.72230   0.72575   0.73175   0.73495
 Alpha virt. eigenvalues --    0.73775   0.74419   0.74610   0.75196   0.76010
 Alpha virt. eigenvalues --    0.76484   0.76634   0.77141   0.77527   0.77717
 Alpha virt. eigenvalues --    0.78211   0.78426   0.78971   0.79780   0.79971
 Alpha virt. eigenvalues --    0.80663   0.80902   0.81497   0.81841   0.82321
 Alpha virt. eigenvalues --    0.82480   0.82975   0.83735   0.84137   0.84489
 Alpha virt. eigenvalues --    0.85022   0.85622   0.85744   0.86539   0.86601
 Alpha virt. eigenvalues --    0.87425   0.87718   0.88136   0.88375   0.88617
 Alpha virt. eigenvalues --    0.88850   0.89648   0.89814   0.90324   0.90501
 Alpha virt. eigenvalues --    0.90939   0.92129   0.92423   0.93531   0.94130
 Alpha virt. eigenvalues --    0.94454   0.94651   0.94720   0.95045   0.95326
 Alpha virt. eigenvalues --    0.95647   0.96170   0.96860   0.97138   0.97456
 Alpha virt. eigenvalues --    0.97795   0.98512   0.98708   0.99002   0.99084
 Alpha virt. eigenvalues --    1.00161   1.00227   1.01094   1.01440   1.01890
 Alpha virt. eigenvalues --    1.02375   1.02930   1.03278   1.04180   1.04468
 Alpha virt. eigenvalues --    1.04745   1.05606   1.06812   1.07120   1.07989
 Alpha virt. eigenvalues --    1.08719   1.09371   1.09612   1.09996   1.10410
 Alpha virt. eigenvalues --    1.11035   1.11580   1.11949   1.12649   1.12752
 Alpha virt. eigenvalues --    1.13344   1.14187   1.14659   1.14832   1.14935
 Alpha virt. eigenvalues --    1.15546   1.15928   1.16413   1.16520   1.16821
 Alpha virt. eigenvalues --    1.17460   1.18151   1.18861   1.19078   1.19897
 Alpha virt. eigenvalues --    1.20094   1.20817   1.21258   1.21864   1.22388
 Alpha virt. eigenvalues --    1.22951   1.23660   1.23862   1.24180   1.24738
 Alpha virt. eigenvalues --    1.26056   1.26862   1.27830   1.28860   1.30145
 Alpha virt. eigenvalues --    1.31229   1.32854   1.34010   1.34829   1.36396
 Alpha virt. eigenvalues --    1.38178   1.38505   1.39385   1.40349   1.40711
 Alpha virt. eigenvalues --    1.42028   1.43230   1.43921   1.44787   1.45119
 Alpha virt. eigenvalues --    1.46428   1.46884   1.47859   1.49089   1.50030
 Alpha virt. eigenvalues --    1.51116   1.52168   1.53123   1.54001   1.54238
 Alpha virt. eigenvalues --    1.56919   1.58190   1.59659   1.59814   1.60916
 Alpha virt. eigenvalues --    1.61813   1.62144   1.62401   1.63183   1.63499
 Alpha virt. eigenvalues --    1.64524   1.64872   1.65201   1.65726   1.66028
 Alpha virt. eigenvalues --    1.66917   1.67136   1.67766   1.68928   1.69393
 Alpha virt. eigenvalues --    1.69801   1.70205   1.70859   1.71250   1.71782
 Alpha virt. eigenvalues --    1.72259   1.72573   1.73199   1.73869   1.75028
 Alpha virt. eigenvalues --    1.75512   1.76037   1.76205   1.77115   1.77760
 Alpha virt. eigenvalues --    1.78905   1.79240   1.79445   1.80371   1.81141
 Alpha virt. eigenvalues --    1.81612   1.82352   1.82498   1.83152   1.83629
 Alpha virt. eigenvalues --    1.84445   1.84581   1.85103   1.85707   1.86179
 Alpha virt. eigenvalues --    1.88584   1.89345   1.89748   1.91394   1.93089
 Alpha virt. eigenvalues --    1.93453   1.93742   1.94325   1.95249   1.95634
 Alpha virt. eigenvalues --    1.95938   1.96441   1.97554   1.97843   1.98217
 Alpha virt. eigenvalues --    1.99366   2.00744   2.01071   2.01433   2.02446
 Alpha virt. eigenvalues --    2.02728   2.02961   2.03341   2.03621   2.04190
 Alpha virt. eigenvalues --    2.05210   2.06402   2.06769   2.07395   2.07628
 Alpha virt. eigenvalues --    2.08472   2.09013   2.09188   2.09603   2.10767
 Alpha virt. eigenvalues --    2.11386   2.11524   2.11964   2.12225   2.13405
 Alpha virt. eigenvalues --    2.14339   2.16052   2.16646   2.17037   2.17587
 Alpha virt. eigenvalues --    2.17918   2.20041   2.20392   2.21016   2.22051
 Alpha virt. eigenvalues --    2.23791   2.24366   2.24457   2.25086   2.25307
 Alpha virt. eigenvalues --    2.26232   2.26790   2.27696   2.29441   2.29963
 Alpha virt. eigenvalues --    2.31039   2.31513   2.33620   2.33774   2.35431
 Alpha virt. eigenvalues --    2.36184   2.36488   2.37020   2.39922   2.41535
 Alpha virt. eigenvalues --    2.42579   2.42813   2.44646   2.45403   2.46531
 Alpha virt. eigenvalues --    2.46769   2.48166   2.49407   2.50918   2.50979
 Alpha virt. eigenvalues --    2.51766   2.53762   2.54359   2.55066   2.55228
 Alpha virt. eigenvalues --    2.55820   2.56670   2.56862   2.58829   2.59496
 Alpha virt. eigenvalues --    2.61195   2.65734   2.67080   2.67901   2.68761
 Alpha virt. eigenvalues --    2.70226   2.71495   2.71885   2.72289   2.74157
 Alpha virt. eigenvalues --    2.75951   2.79090   2.81030   2.81350   2.82129
 Alpha virt. eigenvalues --    2.82753   2.83350   2.84207   2.84866   2.85276
 Alpha virt. eigenvalues --    2.86355   2.86861   2.87160   2.88558   2.89346
 Alpha virt. eigenvalues --    2.89441   2.90183   2.90959   2.91417   2.91967
 Alpha virt. eigenvalues --    2.93764   2.94217   2.94547   2.94954   2.95106
 Alpha virt. eigenvalues --    2.95969   2.98716   2.99069   2.99593   3.00534
 Alpha virt. eigenvalues --    3.01072   3.01349   3.01722   3.03167   3.03675
 Alpha virt. eigenvalues --    3.04819   3.05321   3.05395   3.05713   3.06235
 Alpha virt. eigenvalues --    3.06583   3.06801   3.07098   3.07990   3.08851
 Alpha virt. eigenvalues --    3.09483   3.11353   3.11833   3.12887   3.13774
 Alpha virt. eigenvalues --    3.14158   3.14996   3.15530   3.16210   3.16720
 Alpha virt. eigenvalues --    3.18039   3.18346   3.19369   3.19551   3.20887
 Alpha virt. eigenvalues --    3.21287   3.21784   3.22623   3.22937   3.24086
 Alpha virt. eigenvalues --    3.25924   3.26598   3.27404   3.29135   3.30162
 Alpha virt. eigenvalues --    3.30692   3.34073   3.34486   3.35495   3.37046
 Alpha virt. eigenvalues --    3.37781   3.39215   3.40099   3.40225   3.40963
 Alpha virt. eigenvalues --    3.42876   3.46567   3.52374   3.53144   3.53658
 Alpha virt. eigenvalues --    3.54710   3.56399   3.59273   3.59843   3.60354
 Alpha virt. eigenvalues --    3.60493   3.61436   3.64738   3.71007   3.76077
 Alpha virt. eigenvalues --    3.79818   3.81289   3.82238   3.83140   3.84925
 Alpha virt. eigenvalues --    3.86653   3.88291   3.90216   3.90826   3.90951
 Alpha virt. eigenvalues --    3.95360   3.96406   3.96907   4.08844   4.18423
 Alpha virt. eigenvalues --    4.18671   4.19624   4.19868   4.21603   4.27621
 Alpha virt. eigenvalues --    4.28594   4.32322   4.33146   4.37578   4.37664
 Alpha virt. eigenvalues --    4.42933   4.43664   4.45346   4.45778   4.46111
 Alpha virt. eigenvalues --    4.47244   4.48276   4.53344   4.56620   4.57465
 Alpha virt. eigenvalues --    4.57779   4.61892   4.63268   4.74597   4.97452
 Alpha virt. eigenvalues --    4.97888   5.00219   5.00377   5.17579   5.18253
 Alpha virt. eigenvalues --    5.21588   5.54791   5.55757   5.58325   5.91971
 Alpha virt. eigenvalues --    5.93620   6.04262  23.83768  23.87835  23.89494
 Alpha virt. eigenvalues --   23.94512  24.06080  24.12802  24.13789  24.17046
 Alpha virt. eigenvalues --   24.20735  24.20931  24.21592  24.25794  24.28124
 Alpha virt. eigenvalues --   24.29036  24.30036  24.32564  24.34225  24.37354
 Alpha virt. eigenvalues --   24.38086  24.38673  24.38900  24.39517  24.40007
 Alpha virt. eigenvalues --   24.44344  24.45203  24.49428  24.50058  50.11386
 Alpha virt. eigenvalues --   50.12365  50.17095
          Condensed to atoms (all electrons):
               1          2          3          4          5          6
     1  O    8.274885   0.000135   0.000045   0.291198  -0.441099  -0.027987
     2  O    0.000135   8.164564  -0.000000   0.001076   0.000545   0.000033
     3  O    0.000045  -0.000000   8.165134  -0.000993  -0.000382   0.000008
     4  C    0.291198   0.001076  -0.000993   9.907865  -1.400435  -0.121938
     5  C   -0.441099   0.000545  -0.000382  -1.400435  10.444181   0.560514
     6  H   -0.027987   0.000033   0.000008  -0.121938   0.560514   0.494679
     7  C   -0.038753  -0.000481  -0.000580  -0.745505   0.595274  -0.097826
     8  H   -0.003920  -0.000054  -0.000011   0.021276  -0.135236  -0.018310
     9  C    0.083505   0.000468   0.000108   1.507749  -1.298431  -0.011522
    10  H    0.002424   0.000086   0.000051   0.034181  -0.022623   0.001791
    11  C   -0.015753  -0.001925  -0.003134  -0.892592   2.150386   0.068725
    12  H   -0.004856  -0.000543   0.000220  -0.014543   0.106548  -0.000006
    13  C    0.017987  -0.002220   0.000141   1.099981  -1.332264  -0.029565
    14  C    0.253686   0.008056   0.016653  -0.192954  -1.765943  -0.015711
    15  C    0.014762  -0.000616   0.006882  -0.857992  -1.397153  -0.030309
    16  C   -0.030893  -0.001500  -0.003867  -0.842689  -0.025501   0.005371
    17  H   -0.004340  -0.000476   0.001008   0.006740   0.011067   0.000092
    18  C    0.085091   0.000747   0.001365  -0.313042  -0.207030   0.001911
    19  H    0.002471   0.000069  -0.000078  -0.002344  -0.004092  -0.000036
    20  C   -0.051181  -0.000134  -0.000877  -0.091272   0.142904  -0.001565
    21  H   -0.004144  -0.000035  -0.000015  -0.006746   0.001528  -0.000050
    22  C   -0.468834   0.000515   0.000260   0.193804   0.327563  -0.008546
    23  H   -0.027982   0.000020   0.000013   0.038784  -0.014525  -0.000124
    24  C    0.254973   0.002626   0.000995   0.128073   0.079324   0.029600
    25  C   -0.023649   0.057569   0.004619  -0.271355  -0.254140  -0.007019
    26  C    0.022858  -0.025697  -0.000707  -0.439677  -0.015619  -0.005777
    27  H   -0.004060  -0.056481  -0.000107  -0.075932   0.022326  -0.001997
    28  C   -0.002597  -0.097699  -0.000110   0.392255   0.193461   0.005791
    29  C   -0.000225   0.235273   0.000000  -0.001498   0.000046  -0.000028
    30  H    0.000018  -0.060286   0.000000  -0.000690  -0.000190   0.000004
    31  H   -0.000010  -0.031932  -0.000000   0.000288  -0.000151   0.000009
    32  H   -0.000013  -0.039840  -0.000000   0.000697   0.000196  -0.000011
    33  C    0.006517   0.062226   0.000208   0.023769  -0.007405   0.001517
    34  H    0.000179  -0.024089   0.000013  -0.000634  -0.000404   0.000009
    35  C    0.001820   0.001314  -0.001363  -0.327442  -0.036459  -0.001020
    36  H   -0.000184  -0.000492  -0.000112  -0.000868   0.000139  -0.000011
    37  C    0.035485  -0.016970   0.005452  -0.752887  -0.237854  -0.004477
    38  C    0.012240   0.003834   0.016115  -0.588655   0.010481  -0.001269
    39  C    0.001712  -0.001071   0.025962  -0.342350  -0.006936  -0.001255
    40  H    0.000152   0.000012   0.000041  -0.002111  -0.000005   0.000007
    41  C   -0.004449   0.000280   0.062698   0.098059   0.037362   0.000637
    42  H   -0.000070   0.000003  -0.025825  -0.000870   0.000028  -0.000005
    43  C   -0.018714   0.000122   0.138449   0.684321   0.115277   0.003350
    44  C    0.000181   0.000001   0.221396   0.000329  -0.000702  -0.000011
    45  H    0.000008   0.000000  -0.063093  -0.000501  -0.000072  -0.000001
    46  H    0.000005   0.000000  -0.044241   0.000334   0.000025  -0.000002
    47  H   -0.000012  -0.000000  -0.025491   0.000539   0.000108   0.000002
    48  C   -0.092735  -0.000924  -0.207529   0.021227   0.243223   0.005760
    49  H   -0.000716  -0.000080  -0.036123  -0.058625   0.004732   0.000754
    50  C    0.033706   0.007152  -0.058155  -0.117326  -0.167530  -0.007366
               7          8          9         10         11         12
     1  O   -0.038753  -0.003920   0.083505   0.002424  -0.015753  -0.004856
     2  O   -0.000481  -0.000054   0.000468   0.000086  -0.001925  -0.000543
     3  O   -0.000580  -0.000011   0.000108   0.000051  -0.003134   0.000220
     4  C   -0.745505   0.021276   1.507749   0.034181  -0.892592  -0.014543
     5  C    0.595274  -0.135236  -1.298431  -0.022623   2.150386   0.106548
     6  H   -0.097826  -0.018310  -0.011522   0.001791   0.068725  -0.000006
     7  C    7.202378   0.495609   1.102562  -0.099698  -1.213882   0.068851
     8  H    0.495609   0.504736  -0.001801  -0.012846  -0.062083   0.002867
     9  C    1.102562  -0.001801  13.721373   0.422583  -1.954813  -0.319275
    10  H   -0.099698  -0.012846   0.422583   0.490708  -0.077921  -0.024224
    11  C   -1.213882  -0.062083  -1.954813  -0.077921  13.146001   0.534597
    12  H    0.068851   0.002867  -0.319275  -0.024224   0.534597   0.539159
    13  C   -0.183158   0.038089  -3.931749   0.037821  -0.504357   0.157060
    14  C   -0.653857   0.000902  -1.675776   0.043472  -1.987248  -0.086612
    15  C    0.022834   0.002250   0.056059   0.002552  -0.532823  -0.017589
    16  C   -0.160777  -0.004849  -0.558799   0.006618  -1.571843  -0.036888
    17  H   -0.000907  -0.000038  -0.017336  -0.000057  -0.045822   0.000631
    18  C   -0.050137  -0.001282  -0.051087   0.002139  -0.525970  -0.016210
    19  H   -0.000228  -0.000001   0.002580   0.000018   0.008300  -0.000155
    20  C    0.019139   0.000251  -0.052583  -0.000284  -0.176251  -0.000003
    21  H    0.000372   0.000022  -0.001598  -0.000006  -0.005201   0.000020
    22  C    0.117502  -0.000436  -0.162079  -0.002756  -0.035789   0.007978
    23  H   -0.001524  -0.000035   0.003509  -0.000012   0.005630   0.000018
    24  C   -0.063816  -0.006821  -0.168203  -0.000027  -0.953555  -0.008092
    25  C    0.074566   0.008692   0.065782  -0.010351  -0.039437   0.093082
    26  C    0.014699  -0.004689   0.190794   0.003016   0.434654  -0.068935
    27  H    0.014770  -0.001217   0.022394   0.000371   0.052069  -0.007525
    28  C   -0.011042  -0.002125  -0.035523   0.002690  -0.011825  -0.020272
    29  C    0.000172   0.000029  -0.001214  -0.000013  -0.000458   0.000137
    30  H   -0.000083  -0.000002   0.000061   0.000002   0.000147   0.000001
    31  H    0.000020   0.000001  -0.000081   0.000004   0.000096  -0.000058
    32  H    0.000016   0.000001  -0.000274  -0.000011  -0.000019  -0.000049
    33  C   -0.015451  -0.000054   0.018087   0.000046  -0.104446   0.019198
    34  H   -0.000297  -0.000001   0.001582  -0.000001  -0.003546   0.000611
    35  C    0.015419   0.000587   0.132710   0.001047   0.433351  -0.029316
    36  H    0.000657   0.000017  -0.000160  -0.000080   0.005296  -0.000827
    37  C   -0.011394   0.002139   0.161244   0.000874   0.410291   0.002084
    38  C   -0.019793   0.000474   0.075799   0.003860   0.379232  -0.032629
    39  C    0.012615   0.000319   0.028081  -0.000635   0.578063  -0.032353
    40  H   -0.000299  -0.000049  -0.001608   0.000047   0.001376  -0.001516
    41  C   -0.009488   0.000029  -0.039503   0.000043  -0.077990   0.023660
    42  H    0.000065   0.000019   0.002584   0.000087   0.004935  -0.000755
    43  C   -0.030781  -0.002499  -0.046200   0.005904  -0.639568  -0.053742
    44  C   -0.000197  -0.000018  -0.003268   0.000076  -0.008490  -0.002749
    45  H   -0.000030  -0.000002  -0.000302   0.000007  -0.000159  -0.000192
    46  H    0.000033  -0.000000  -0.000697  -0.000035  -0.001626  -0.000057
    47  H    0.000000  -0.000000   0.000207  -0.000003   0.000735   0.000269
    48  C   -0.026683  -0.001423  -0.083808   0.001699   0.402013   0.011106
    49  H   -0.006708  -0.000273  -0.009606  -0.000027   0.033190   0.003124
    50  C    0.001409  -0.000525  -0.611608  -0.004726  -0.516226   0.037729
              13         14         15         16         17         18
     1  O    0.017987   0.253686   0.014762  -0.030893  -0.004340   0.085091
     2  O   -0.002220   0.008056  -0.000616  -0.001500  -0.000476   0.000747
     3  O    0.000141   0.016653   0.006882  -0.003867   0.001008   0.001365
     4  C    1.099981  -0.192954  -0.857992  -0.842689   0.006740  -0.313042
     5  C   -1.332264  -1.765943  -1.397153  -0.025501   0.011067  -0.207030
     6  H   -0.029565  -0.015711  -0.030309   0.005371   0.000092   0.001911
     7  C   -0.183158  -0.653857   0.022834  -0.160777  -0.000907  -0.050137
     8  H    0.038089   0.000902   0.002250  -0.004849  -0.000038  -0.001282
     9  C   -3.931749  -1.675776   0.056059  -0.558799  -0.017336  -0.051087
    10  H    0.037821   0.043472   0.002552   0.006618  -0.000057   0.002139
    11  C   -0.504357  -1.987248  -0.532823  -1.571843  -0.045822  -0.525970
    12  H    0.157060  -0.086612  -0.017589  -0.036888   0.000631  -0.016210
    13  C   12.859336   2.378018  -0.652201  -0.716974  -0.016757  -0.028775
    14  C    2.378018  19.616264   2.320909  -2.264984  -0.094429  -1.691682
    15  C   -0.652201   2.320909  12.972101  -0.415877   0.170767  -4.133145
    16  C   -0.716974  -2.264984  -0.415877  13.019410   0.510451  -1.708358
    17  H   -0.016757  -0.094429   0.170767   0.510451   0.548400  -0.331238
    18  C   -0.028775  -1.691682  -4.133145  -1.708358  -0.331238  13.696912
    19  H    0.000632   0.044471   0.040222  -0.064443  -0.028409   0.422772
    20  C    0.028850  -0.734051  -0.150307  -1.389682   0.076727   1.112074
    21  H    0.001554   0.000645   0.041014  -0.071690   0.002925  -0.010298
    22  C   -1.369442  -1.905426  -1.299902   1.830037   0.111674  -1.132508
    23  H   -0.024612  -0.015758  -0.026725   0.061858  -0.000416  -0.003020
    24  C   -0.818608  -0.277203   0.987842  -0.388993   0.018819   0.988600
    25  C    1.415941   0.360767   1.781054  -0.241477   0.070754  -0.172720
    26  C   -0.912505  -2.404211  -0.634830   0.428611  -0.065333   0.261993
    27  H   -0.125744  -0.151870  -0.105341   0.042851  -0.007562   0.030315
    28  C   -0.442073   0.085180  -0.876452   0.000594  -0.017237   0.048588
    29  C    0.005974   0.026179   0.004889   0.000718  -0.000270   0.000275
    30  H    0.000387  -0.001559   0.000494   0.000140  -0.000015   0.000209
    31  H   -0.000981   0.003311  -0.000712   0.000082   0.000006  -0.000311
    32  H   -0.000488   0.003404  -0.001690   0.000111  -0.000059   0.000023
    33  C    0.225354   0.072019   0.190596  -0.065369   0.016160   0.025899
    34  H    0.008433  -0.010394   0.010783  -0.002023   0.000279   0.001106
    35  C   -0.692869  -1.470167  -0.142081   0.370015  -0.043318   0.128245
    36  H   -0.014253  -0.020927  -0.009085   0.001541  -0.000643  -0.001812
    37  C    0.110227   0.107331   0.361918   0.160416  -0.021950   0.125428
    38  C   -0.350719  -0.103959  -0.594283   0.375587  -0.031523   0.245354
    39  C   -1.072090  -1.857137  -0.682637   0.513057  -0.052939   0.091629
    40  H   -0.009953  -0.020425  -0.013256   0.005475  -0.001812   0.002748
    41  C    0.319349  -0.957772   0.079420  -0.096347   0.030138  -0.051821
    42  H    0.000304  -0.028082   0.006054  -0.003360  -0.001029  -0.003354
    43  C    0.373170  -0.126171  -0.297500  -0.287710   0.009220   0.106438
    44  C   -0.007574   0.061307  -0.022672   0.004456  -0.001578   0.007004
    45  H   -0.001043  -0.000681  -0.001754   0.000717  -0.000054   0.000774
    46  H    0.000291   0.000328  -0.000333   0.000153   0.000280   0.000421
    47  H    0.001442   0.003824  -0.000043  -0.000225  -0.000309  -0.001097
    48  C   -0.607853  -1.672178  -0.359672   0.466953  -0.015290   0.040108
    49  H    0.001382  -0.165397   0.015338   0.046835   0.001541   0.017440
    50  C    0.384125   1.498753  -0.295783  -0.313801   0.035108  -0.447553
              19         20         21         22         23         24
     1  O    0.002471  -0.051181  -0.004144  -0.468834  -0.027982   0.254973
     2  O    0.000069  -0.000134  -0.000035   0.000515   0.000020   0.002626
     3  O   -0.000078  -0.000877  -0.000015   0.000260   0.000013   0.000995
     4  C   -0.002344  -0.091272  -0.006746   0.193804   0.038784   0.128073
     5  C   -0.004092   0.142904   0.001528   0.327563  -0.014525   0.079324
     6  H   -0.000036  -0.001565  -0.000050  -0.008546  -0.000124   0.029600
     7  C   -0.000228   0.019139   0.000372   0.117502  -0.001524  -0.063816
     8  H   -0.000001   0.000251   0.000022  -0.000436  -0.000035  -0.006821
     9  C    0.002580  -0.052583  -0.001598  -0.162079   0.003509  -0.168203
    10  H    0.000018  -0.000284  -0.000006  -0.002756  -0.000012  -0.000027
    11  C    0.008300  -0.176251  -0.005201  -0.035789   0.005630  -0.953555
    12  H   -0.000155  -0.000003   0.000020   0.007978   0.000018  -0.008092
    13  C    0.000632   0.028850   0.001554  -1.369442  -0.024612  -0.818608
    14  C    0.044471  -0.734051   0.000645  -1.905426  -0.015758  -0.277203
    15  C    0.040222  -0.150307   0.041014  -1.299902  -0.026725   0.987842
    16  C   -0.064443  -1.389682  -0.071690   1.830037   0.061858  -0.388993
    17  H   -0.028409   0.076727   0.002925   0.111674  -0.000416   0.018819
    18  C    0.422772   1.112074  -0.010298  -1.132508  -0.003020   0.988600
    19  H    0.495575  -0.121853  -0.013950  -0.024287   0.002080   0.032005
    20  C   -0.121853   7.548982   0.511803   0.657953  -0.104180  -0.810283
    21  H   -0.013950   0.511803   0.503984  -0.130392  -0.018980   0.019402
    22  C   -0.024287   0.657953  -0.130392  10.176371   0.539998  -0.868707
    23  H    0.002080  -0.104180  -0.018980   0.539998   0.495078  -0.106207
    24  C    0.032005  -0.810283   0.019402  -0.868707  -0.106207   9.721009
    25  C   -0.007295   0.035462   0.005998  -0.155400  -0.002443  -0.224715
    26  C    0.003212   0.010221  -0.003321  -0.036823  -0.006993  -0.400189
    27  H    0.000564   0.017125  -0.000996   0.010117  -0.002517  -0.072073
    28  C    0.002089  -0.003272  -0.000958   0.104462   0.002515   0.310638
    29  C    0.000038   0.000178   0.000024  -0.000715  -0.000038  -0.001540
    30  H    0.000006  -0.000114  -0.000003  -0.000181   0.000001  -0.000685
    31  H   -0.000012  -0.000012   0.000001   0.000053  -0.000010   0.000496
    32  H    0.000005   0.000027   0.000002  -0.000220   0.000006   0.000212
    33  C   -0.000376  -0.014567  -0.000118  -0.000838   0.001343   0.026504
    34  H   -0.000001  -0.000331  -0.000007   0.000249   0.000016   0.000225
    35  C    0.002952  -0.003652   0.000197  -0.014190  -0.000346  -0.237150
    36  H   -0.000031   0.000356   0.000013   0.000247   0.000004  -0.000356
    37  C    0.004189  -0.057181   0.000521  -0.203735  -0.002163  -0.778733
    38  C    0.003583  -0.009491   0.000736  -0.074889  -0.002596  -0.650581
    39  C    0.001876   0.003462   0.000140  -0.017034  -0.001210  -0.312534
    40  H    0.000118  -0.000328  -0.000044  -0.000603  -0.000005  -0.002590
    41  C   -0.001531  -0.004369   0.000084   0.024534   0.000383   0.065705
    42  H    0.000097  -0.000323   0.000011   0.000339   0.000005  -0.000661
    43  C    0.000050   0.001465  -0.001293   0.112330   0.002290   0.681424
    44  C   -0.000142   0.001214   0.000011  -0.001847  -0.000068   0.000269
    45  H   -0.000003   0.000041  -0.000000  -0.000200  -0.000008  -0.000535
    46  H   -0.000019   0.000019  -0.000001   0.000013   0.000000   0.000277
    47  H   -0.000010   0.000133   0.000001   0.000120   0.000005   0.000392
    48  C    0.005357  -0.053301  -0.001663   0.277755   0.005628   0.091621
    49  H    0.000858  -0.014836  -0.000633   0.002912   0.000964  -0.055076
    50  C   -0.000821   0.026247   0.000342  -0.350637  -0.013177  -0.253134
              25         26         27         28         29         30
     1  O   -0.023649   0.022858  -0.004060  -0.002597  -0.000225   0.000018
     2  O    0.057569  -0.025697  -0.056481  -0.097699   0.235273  -0.060286
     3  O    0.004619  -0.000707  -0.000107  -0.000110   0.000000   0.000000
     4  C   -0.271355  -0.439677  -0.075932   0.392255  -0.001498  -0.000690
     5  C   -0.254140  -0.015619   0.022326   0.193461   0.000046  -0.000190
     6  H   -0.007019  -0.005777  -0.001997   0.005791  -0.000028   0.000004
     7  C    0.074566   0.014699   0.014770  -0.011042   0.000172  -0.000083
     8  H    0.008692  -0.004689  -0.001217  -0.002125   0.000029  -0.000002
     9  C    0.065782   0.190794   0.022394  -0.035523  -0.001214   0.000061
    10  H   -0.010351   0.003016   0.000371   0.002690  -0.000013   0.000002
    11  C   -0.039437   0.434654   0.052069  -0.011825  -0.000458   0.000147
    12  H    0.093082  -0.068935  -0.007525  -0.020272   0.000137   0.000001
    13  C    1.415941  -0.912505  -0.125744  -0.442073   0.005974   0.000387
    14  C    0.360767  -2.404211  -0.151870   0.085180   0.026179  -0.001559
    15  C    1.781054  -0.634830  -0.105341  -0.876452   0.004889   0.000494
    16  C   -0.241477   0.428611   0.042851   0.000594   0.000718   0.000140
    17  H    0.070754  -0.065333  -0.007562  -0.017237  -0.000270  -0.000015
    18  C   -0.172720   0.261993   0.030315   0.048588   0.000275   0.000209
    19  H   -0.007295   0.003212   0.000564   0.002089   0.000038   0.000006
    20  C    0.035462   0.010221   0.017125  -0.003272   0.000178  -0.000114
    21  H    0.005998  -0.003321  -0.000996  -0.000958   0.000024  -0.000003
    22  C   -0.155400  -0.036823   0.010117   0.104462  -0.000715  -0.000181
    23  H   -0.002443  -0.006993  -0.002517   0.002515  -0.000038   0.000001
    24  C   -0.224715  -0.400189  -0.072073   0.310638  -0.001540  -0.000685
    25  C   14.682004  -3.738861  -0.400718  -3.817725  -0.075344   0.002729
    26  C   -3.738861  13.260629   0.734621  -0.156835   0.353266  -0.005192
    27  H   -0.400718   0.734621   0.623759   0.182771   0.001394   0.002506
    28  C   -3.817725  -0.156835   0.182771  13.594946   0.136087   0.058681
    29  C   -0.075344   0.353266   0.001394   0.136087   5.109170   0.408937
    30  H    0.002729  -0.005192   0.002506   0.058681   0.408937   0.456224
    31  H   -0.017807   0.055467  -0.002299  -0.025462   0.438333  -0.016412
    32  H   -0.021188   0.014712  -0.001040  -0.014168   0.430855  -0.019638
    33  C    2.089025  -2.643979  -0.328936  -2.892182  -0.379683   0.003177
    34  H    0.118514  -0.116208  -0.012994  -0.325467  -0.018154   0.004159
    35  C   -1.228390   1.041937   0.018764  -0.670909  -0.198692  -0.009458
    36  H   -0.060570   0.050127   0.003325   0.131258   0.011302   0.000327
    37  C    1.763890  -0.782472  -0.001353  -0.595811  -0.116018  -0.005929
    38  C   -1.033563   0.735909   0.119448  -0.459138  -0.020592  -0.000533
    39  C   -2.583874   1.422624   0.104342   0.303759  -0.009493   0.000197
    40  H   -0.034766   0.023772   0.001460  -0.005997  -0.000336   0.000001
    41  C   -0.573730   0.031728   0.010027  -0.005888  -0.000672   0.000062
    42  H   -0.003796  -0.003779   0.000120   0.002035   0.000016  -0.000001
    43  C   -0.107306   0.159976  -0.010802   0.250312  -0.000743  -0.000077
    44  C   -0.027565   0.008396   0.000314   0.000186  -0.000007  -0.000000
    45  H   -0.001117   0.000288   0.000021  -0.000013  -0.000000  -0.000000
    46  H    0.000452   0.000287  -0.000002   0.000086  -0.000000  -0.000000
    47  H    0.001747  -0.000293  -0.000018  -0.000026   0.000000  -0.000000
    48  C    0.718224  -0.425080  -0.036849   0.289580   0.005655   0.000139
    49  H    0.032351  -0.004710  -0.001281  -0.003580   0.000063   0.000005
    50  C   -2.800245   0.588921   0.152286   0.925627  -0.026182  -0.002278
              31         32         33         34         35         36
     1  O   -0.000010  -0.000013   0.006517   0.000179   0.001820  -0.000184
     2  O   -0.031932  -0.039840   0.062226  -0.024089   0.001314  -0.000492
     3  O   -0.000000  -0.000000   0.000208   0.000013  -0.001363  -0.000112
     4  C    0.000288   0.000697   0.023769  -0.000634  -0.327442  -0.000868
     5  C   -0.000151   0.000196  -0.007405  -0.000404  -0.036459   0.000139
     6  H    0.000009  -0.000011   0.001517   0.000009  -0.001020  -0.000011
     7  C    0.000020   0.000016  -0.015451  -0.000297   0.015419   0.000657
     8  H    0.000001   0.000001  -0.000054  -0.000001   0.000587   0.000017
     9  C   -0.000081  -0.000274   0.018087   0.001582   0.132710  -0.000160
    10  H    0.000004  -0.000011   0.000046  -0.000001   0.001047  -0.000080
    11  C    0.000096  -0.000019  -0.104446  -0.003546   0.433351   0.005296
    12  H   -0.000058  -0.000049   0.019198   0.000611  -0.029316  -0.000827
    13  C   -0.000981  -0.000488   0.225354   0.008433  -0.692869  -0.014253
    14  C    0.003311   0.003404   0.072019  -0.010394  -1.470167  -0.020927
    15  C   -0.000712  -0.001690   0.190596   0.010783  -0.142081  -0.009085
    16  C    0.000082   0.000111  -0.065369  -0.002023   0.370015   0.001541
    17  H    0.000006  -0.000059   0.016160   0.000279  -0.043318  -0.000643
    18  C   -0.000311   0.000023   0.025899   0.001106   0.128245  -0.001812
[...]
   zyy        0.755253D+02      0.652480D+00      0.242162D+00
   zzy        0.707053D+02      0.610838D+00      0.226707D+00
   xxz        0.391186D+02      0.337954D+00      0.125428D+00
   yxz       -0.954303D+02     -0.824443D+00     -0.305984D+00
   yyz        0.142289D+03      0.122927D+01      0.456232D+00
   zxz        0.742031D+02      0.641057D+00      0.237922D+00
   zyz        0.106897D+03      0.923506D+00      0.342750D+00
   zzz        0.186285D+03      0.160935D+01      0.597296D+00

 ----------------------------------------------------------------------

 Dipole orientation:
     8          7.22333234         29.82756094         -6.59983558
     8          6.94167226         38.08755839          0.50305393
     8          8.73901583         20.24608990          2.01110522
     6          9.63141796         29.63513406         -5.59543168
     6         11.60479344         30.03330041         -7.29458254
     1         11.26427906         30.39330916         -9.00022895
     6         14.05570247         29.89272960         -6.44248586
     1         15.40015494         30.19614442         -7.56335995
     6         14.55060397         29.30958625         -3.95478750
     1         16.22859322         29.17129296         -3.38915004
     6         12.57741567         28.92941703         -2.29555833
     1         12.93257076         28.53783248         -0.59991527
     6         10.06759419         29.11260350         -3.07490773
     6          7.91371219         28.95379496         -1.16999177
     6          5.41076357         28.58269671         -2.56625708
     6          3.23245190         27.84101100         -1.28692695
     1          3.32627882         27.47403839          0.44849781
     6          0.93590620         27.63354942         -2.51522534
     1         -0.51457899         27.14256794         -1.61435178
     6          0.77657084         28.14967006         -5.07018321
     1         -0.78406464         28.01502031         -5.90704058
     6          2.89653352         28.85861520         -6.38748959
     1          2.79602467         29.19626020         -8.12886348
     6          5.20044131         29.07525887         -5.12709606
     6          7.86364884         31.35270638          0.46720128
     6          7.44356570         33.78567018         -0.33227615
     1          7.16158319         34.13663905         -2.05052134
     6          7.44302291         35.72936144          1.45307429
     6          6.74477568         40.14789779          2.20978755
     1          6.31541653         41.66980929          1.28267549
     1          5.43676865         39.79498865          3.44505190
     1          8.34745073         40.38422549          3.06852859
     6          7.91978125         35.20033564          3.98882072
     1          7.92938785         36.51886266          5.17926268
     6          8.38047557         32.73177707          4.76886256
     1          8.72310297         32.39077962          6.47805943
     6          8.33605237         30.76623224          3.01971502
     6          8.61826660         28.00010351          3.25118921
     6          8.99948278         26.41964763          5.30987190
     1          9.20704029         27.10855982          6.93385054
     6          9.07568102         23.80606381          4.96392123
     1          9.33829352         22.73565645          6.35772204
     6          8.76055975         22.78050094          2.56220291
     6          8.67412372         18.50572962          4.06134616
     1          8.66584687         16.79275836          3.40803927
     1         10.15253629         18.74958355          5.11690081
     1          7.16022027         18.78859961          5.05554370
     6          8.42600316         24.35574566          0.47806182
     1          8.25610384         23.66969796         -1.15189153
     6          8.34971437         26.92828577          0.83955044

 Electric dipole moment (dipole orientation):
 (Debye = 10**-18 statcoulomb cm , SI units = C m)
                  (au)            (Debye)         (10**-30 SI)
   Tot        0.139317D+01      0.354110D+01      0.118118D+02
   x          0.000000D+00      0.000000D+00      0.000000D+00
   y          0.000000D+00      0.000000D+00      0.000000D+00
   z          0.139317D+01      0.354110D+01      0.118118D+02

 Dipole polarizability, Alpha (dipole orientation).
 (esu units = cm**3 , SI units = C**2 m**2 J**-1)
 Alpha(0;0):
               (au)            (10**-24 esu)      (10**-40 SI)
   iso        0.302279D+03      0.447932D+02      0.498391D+02
   aniso      0.669532D+02      0.992143D+01      0.110391D+02
   xx         0.267954D+03      0.397067D+02      0.441796D+02
   yx        -0.333484D+01     -0.494172D+00     -0.549840D+00
   yy         0.336276D+03      0.498310D+02      0.554445D+02
   zx         0.652263D+01      0.966555D+00      0.107544D+01
   zy        -0.165382D+02     -0.245071D+01     -0.272679D+01
   zz         0.302608D+03      0.448419D+02      0.498933D+02

 Dipole polarizability, Alpha (dipole orientation).
 (esu units = cm**3 , SI units = C**2 m**2 J**-1)
 Alpha(0;0):
               (au)            (10**-24 esu)      (10**-40 SI)
   iso        0.302279D+03      0.447932D+02      0.498391D+02
   aniso      0.669532D+02      0.992143D+01      0.110391D+02
   xx         0.267954D+03      0.397067D+02      0.441796D+02
   yx        -0.333484D+01     -0.494172D+00     -0.549840D+00
   yy         0.336276D+03      0.498310D+02      0.554445D+02
   zx         0.652263D+01      0.966555D+00      0.107544D+01
   zy        -0.165382D+02     -0.245071D+01     -0.272679D+01
   zz         0.302608D+03      0.448419D+02      0.498933D+02
 Alpha(-w;w) w=  656.3nm:
                  (au)         (10**-24 esu)      (10**-40 SI)
   iso        0.317096D+03      0.469888D+02      0.522821D+02
   aniso      0.766004D+02      0.113510D+02      0.126297D+02
   xx         0.278546D+03      0.412762D+02      0.459260D+02
   yx        -0.416594D+01     -0.617328D+00     -0.686871D+00
   yy         0.357723D+03      0.530091D+02      0.589806D+02
   zx         0.688714D+01      0.102057D+01      0.113554D+01
   zy        -0.179047D+02     -0.265321D+01     -0.295209D+01
   zz         0.315020D+03      0.466811D+02      0.519397D+02
 Alpha(-w;w) w=  589.3nm:
                  (au)         (10**-24 esu)      (10**-40 SI)
   iso        0.321180D+03      0.475940D+02      0.529554D+02
   aniso      0.795712D+02      0.117912D+02      0.131195D+02
   xx         0.281360D+03      0.416932D+02      0.463900D+02
   yx        -0.442833D+01     -0.656211D+00     -0.730133D+00
   yy         0.363848D+03      0.539167D+02      0.599904D+02
   zx         0.698903D+01      0.103567D+01      0.115233D+01
   zy        -0.183009D+02     -0.271191D+01     -0.301741D+01
   zz         0.318333D+03      0.471720D+02      0.524860D+02
 Alpha(-w;w) w=  587.6nm:
                  (au)         (10**-24 esu)      (10**-40 SI)
   iso        0.321306D+03      0.476126D+02      0.529762D+02
   aniso      0.796651D+02      0.118051D+02      0.131350D+02
   xx         0.281446D+03      0.417060D+02      0.464041D+02
   yx        -0.443667D+01     -0.657446D+00     -0.731507D+00
   yy         0.364038D+03      0.539449D+02      0.600218D+02
   zx         0.699218D+01      0.103613D+01      0.115285D+01
   zy        -0.183133D+02     -0.271374D+01     -0.301945D+01
   zz         0.318434D+03      0.471870D+02      0.525027D+02
 Alpha(-w;w) w=  486.1nm:
                  (au)         (10**-24 esu)      (10**-40 SI)
   iso        0.332200D+03      0.492270D+02      0.547724D+02
   aniso      0.883354D+02      0.130900D+02      0.145645D+02
   xx         0.288706D+03      0.427819D+02      0.476012D+02
   yx        -0.521561D+01     -0.772874D+00     -0.859938D+00
   yy         0.380876D+03      0.564400D+02      0.627980D+02
   zx         0.726785D+01      0.107698D+01      0.119831D+01
   zy        -0.194178D+02     -0.287743D+01     -0.320157D+01
   zz         0.327017D+03      0.484590D+02      0.539179D+02

 First dipole hyperpolarizability, Beta (dipole orientation).
 ||, _|_  parallel and perpendicular components, (z) with respect to z axis,
 vector components x,y,z.  Values do not include the 1/n! factor of 1/2.
 (esu units = statvolt**-1 cm**4 , SI units = C**3 m**3 J**-2)
 Beta(0;0,0):
               (au)            (10**-30 esu)      (10**-50 SI)
   || (z)     0.217265D+03      0.187700D+01      0.696632D+00
   _|_(z)     0.724218D+02      0.625668D+00      0.232211D+00
   x          0.253845D+03      0.219302D+01      0.813918D+00
   y         -0.283997D+03     -0.245351D+01     -0.910597D+00
   z          0.108633D+04      0.938502D+01      0.348316D+01
   ||         0.230235D+03      0.198905D+01      0.738215D+00
   xxx        0.572508D+02      0.494602D+00      0.183567D+00
   xxy       -0.227890D+02     -0.196879D+00     -0.730698D-01
   yxy        0.601020D+02      0.519235D+00      0.192709D+00
   yyy       -0.154051D+02     -0.133088D+00     -0.493944D-01
   xxz        0.158648D+03      0.137060D+01      0.508684D+00
   yxz        0.111234D+01      0.960974D-02      0.356656D-02
   yyz        0.176846D+03      0.152782D+01      0.567033D+00
   zxz       -0.327379D+02     -0.282830D+00     -0.104970D+00
   zyz       -0.564715D+02     -0.487870D+00     -0.181068D+00
   zzz        0.266143D+02      0.229927D+00      0.853350D-01

 First dipole hyperpolarizability, Beta (dipole orientation).
 ||, _|_  parallel and perpendicular components, (z) with respect to z axis,
 vector components x,y,z.  Values do not include the 1/n! factor of 1/2.
 (esu units = statvolt**-1 cm**4 , SI units = C**3 m**3 J**-2)
 Beta(0;0,0):
               (au)            (10**-30 esu)      (10**-50 SI)
   || (z)     0.217265D+03      0.187700D+01      0.696632D+00
   _|_(z)     0.724218D+02      0.625668D+00      0.232211D+00
   x          0.253845D+03      0.219302D+01      0.813918D+00
   y         -0.283997D+03     -0.245351D+01     -0.910597D+00
   z          0.108633D+04      0.938502D+01      0.348316D+01
   ||         0.230235D+03      0.198905D+01      0.738215D+00
   xxx        0.572508D+02      0.494602D+00      0.183567D+00
   xxy       -0.227890D+02     -0.196879D+00     -0.730698D-01
   yxy        0.601020D+02      0.519235D+00      0.192709D+00
   yyy       -0.154051D+02     -0.133088D+00     -0.493944D-01
   xxz        0.158648D+03      0.137060D+01      0.508684D+00
   yxz        0.111234D+01      0.960974D-02      0.356656D-02
   yyz        0.176846D+03      0.152782D+01      0.567033D+00
   zxz       -0.327379D+02     -0.282830D+00     -0.104970D+00
   zyz       -0.564715D+02     -0.487870D+00     -0.181068D+00
   zzz        0.266143D+02      0.229927D+00      0.853350D-01
 Beta(-w;w,0) w=  656.3nm:
                  (au)         (10**-30 esu)      (10**-50 SI)
   || (z)     0.247692D+03      0.213987D+01      0.794190D+00
   _|_(z)     0.958443D+02      0.828020D+00      0.307312D+00
   x          0.307333D+03      0.265511D+01      0.985419D+00
   y         -0.375977D+03     -0.324815D+01     -0.120552D+01
   z          0.123846D+04      0.106993D+02      0.397095D+01
   ||         0.266052D+03      0.229849D+01      0.853060D+00
   xxx        0.613865D+02      0.530331D+00      0.196827D+00
   yxx       -0.261753D+02     -0.226134D+00     -0.839274D-01
   yyx        0.812820D+02      0.702213D+00      0.260619D+00
   zxx        0.171426D+03      0.148099D+01      0.549655D+00
   zyx       -0.167151D+01     -0.144406D-01     -0.535947D-02
   zzx       -0.341956D+02     -0.295423D+00     -0.109643D+00
   xxy       -0.283356D+02     -0.244798D+00     -0.908543D-01
   yxy        0.743761D+02      0.642552D+00      0.238477D+00
   yyy       -0.306940D+02     -0.265172D+00     -0.984159D-01
   zxy       -0.117787D+01     -0.101759D-01     -0.377668D-02
   zyy        0.204203D+03      0.176416D+01      0.654749D+00
   zzy       -0.674734D+02     -0.582918D+00     -0.216344D+00
   xxz        0.181887D+03      0.157136D+01      0.583196D+00
   yxz       -0.268730D+01     -0.232162D-01     -0.861647D-02
   yyz        0.233583D+03      0.201798D+01      0.748952D+00
   zxz       -0.363328D+02     -0.313887D+00     -0.116496D+00
   zyz       -0.678679D+02     -0.586326D+00     -0.217609D+00
   zzz        0.239104D+02      0.206567D+00      0.766654D-01
 Beta(-w;w,0) w=  589.3nm:
                  (au)         (10**-30 esu)      (10**-50 SI)
   || (z)     0.256811D+03      0.221864D+01      0.823427D+00
   _|_(z)     0.103941D+03      0.897969D+00      0.333272D+00
   x          0.324146D+03      0.280037D+01      0.103933D+01
   y         -0.406642D+03     -0.351307D+01     -0.130384D+01
   z          0.128405D+04      0.110932D+02      0.411714D+01
   ||         0.277072D+03      0.239368D+01      0.888392D+00
   xxx        0.623606D+02      0.538747D+00      0.199951D+00
   yxx       -0.271826D+02     -0.234836D+00     -0.871572D-01
   yyx        0.883594D+02      0.763357D+00      0.283312D+00
   zxx        0.174364D+03      0.150637D+01      0.559076D+00
   zyx       -0.272208D+01     -0.235166D-01     -0.872796D-02
   zzx       -0.343932D+02     -0.297131D+00     -0.110277D+00
   xxy       -0.300591D+02     -0.259688D+00     -0.963805D-01
   yxy        0.788347D+02      0.681070D+00      0.252772D+00
   yyy       -0.362177D+02     -0.312892D+00     -0.116127D+00
   zxy       -0.204483D+01     -0.176657D-01     -0.655646D-02
   zyy        0.212701D+03      0.183757D+01      0.681997D+00
   zzy       -0.707579D+02     -0.611293D+00     -0.226875D+00
   xxz        0.188589D+03      0.162927D+01      0.604686D+00
   yxz       -0.418016D+01     -0.361133D-01     -0.134031D-01
   yyz        0.253488D+03      0.218994D+01      0.812776D+00
   zxz       -0.372857D+02     -0.322119D+00     -0.119551D+00
   zyz       -0.714033D+02     -0.616869D+00     -0.228945D+00
   zzz        0.226146D+02      0.195372D+00      0.725105D-01
 Beta(-w;w,0) w=  587.6nm:
                  (au)         (10**-30 esu)      (10**-50 SI)
   || (z)     0.257098D+03      0.222113D+01      0.824349D+00
   _|_(z)     0.104204D+03      0.900241D+00      0.334115D+00
   x          0.324681D+03      0.280499D+01      0.104104D+01
   y         -0.407629D+03     -0.352160D+01     -0.130701D+01
   z          0.128549D+04      0.111056D+02      0.412174D+01
   ||         0.277421D+03      0.239670D+01      0.889512D+00
   xxx        0.623894D+02      0.538996D+00      0.200043D+00
   yxx       -0.272142D+02     -0.235110D+00     -0.872586D-01
   yyx        0.885874D+02      0.765326D+00      0.284043D+00
   zxx        0.174451D+03      0.150712D+01      0.559351D+00
   zyx       -0.275670D+01     -0.238158D-01     -0.883898D-02
   zzx       -0.343978D+02     -0.297170D+00     -0.110292D+00
   xxy       -0.301136D+02     -0.260158D+00     -0.965552D-01
   yxy        0.789761D+02      0.682292D+00      0.253226D+00
   yyy       -0.363983D+02     -0.314453D+00     -0.116706D+00
   zxy       -0.207340D+01     -0.179125D-01     -0.664806D-02
   zyy        0.212971D+03      0.183990D+01      0.682862D+00
   zzy       -0.708610D+02     -0.612184D+00     -0.227206D+00
   xxz        0.188798D+03      0.163107D+01      0.605354D+00
   yxz       -0.422988D+01     -0.365429D-01     -0.135625D-01
   yyz        0.254137D+03      0.219555D+01      0.814856D+00
   zxz       -0.373147D+02     -0.322370D+00     -0.119644D+00
   zyz       -0.715154D+02     -0.617837D+00     -0.229304D+00
   zzz        0.225705D+02      0.194991D+00      0.723691D-01
 Beta(-w;w,0) w=  486.1nm:
                  (au)         (10**-30 esu)      (10**-50 SI)
   || (z)     0.283689D+03      0.245085D+01      0.909610D+00
   _|_(z)     0.130466D+03      0.112712D+01      0.418320D+00
   x          0.375032D+03      0.323998D+01      0.120249D+01
   y         -0.503676D+03     -0.435137D+01     -0.161497D+01
   z          0.141845D+04      0.122543D+02      0.454805D+01
   ||         0.310247D+03      0.268029D+01      0.994764D+00
   xxx        0.645779D+02      0.557903D+00      0.207060D+00
   yxx       -0.300881D+02     -0.259938D+00     -0.964733D-01
   yyx        0.110814D+03      0.957345D+00      0.355309D+00
   zxx        0.180795D+03      0.156193D+01      0.579695D+00
   zyx       -0.632133D+01     -0.546114D-01     -0.202685D-01
   zzx       -0.344210D+02     -0.297371D+00     -0.110366D+00
   xxy       -0.351411D+02     -0.303592D+00     -0.112675D+00
   yxy        0.921800D+02      0.796364D+00      0.295562D+00
   yyy       -0.546771D+02     -0.472368D+00     -0.175315D+00
   zxy       -0.500772D+01     -0.432628D-01     -0.160566D-01
   zyy        0.238359D+03      0.205923D+01      0.764264D+00
   zzy       -0.802351D+02     -0.693169D+00     -0.257263D+00
   xxz        0.207266D+03      0.179062D+01      0.664571D+00
   yxz       -0.951184D+01     -0.821749D-01     -0.304984D-01
   yyz        0.319596D+03      0.276106D+01      0.102474D+01
   zxz       -0.397275D+02     -0.343214D+00     -0.127381D+00
   zyz       -0.820460D+02     -0.708814D+00     -0.263069D+00
   zzz        0.177588D+02      0.153422D+00      0.569412D-01

 ----------------------------------------------------------------------
 Unable to Open any file for archive entry.
 1\1\GINC-SKKUPSL\SP\RwB97XD\6-311++G(d,p)\C27H20O3\PSL\31-Oct-2025\0\\
 # wb97xd/6-311++g(d,p) polar cphf=rdfreq\\Title Card Required\\0,1\O,0
 ,2.568739,14.703639,7.290381\O,0,-0.328394,16.706338,11.856717\O,0,1.4
 95964,8.017603,8.413291\C,0,3.330824,14.16038,8.310585\C,0,4.649457,14
 .607531,8.37857\H,0,4.972988,15.232149,7.755184\C,0,5.47044,14.122942,
 9.369596\H,0,6.355344,14.432982,9.437288\C,0,5.002665,13.185529,10.263
 605\H,0,5.573464,12.839023,10.925068\C,0,3.694331,12.756692,10.185846\
 H,0,3.382703,12.118946,10.801937\C,0,2.822964,13.247278,9.214515\C,0,1
 .345899,12.872572,9.228229\C,0,0.704931,13.265267,7.896405\C,0,-0.5503
 32,12.784406,7.530077\H,0,-0.988657,12.169674,8.09\C,0,-1.165065,13.19
 2174,6.360774\H,0,-2.015542,12.860903,6.135229\C,0,-0.526893,14.087935
 ,5.524099\H,0,-0.944535,14.368478,4.730315\C,0,0.717033,14.56831,5.851
 329\H,0,1.156666,15.171697,5.27988\C,0,1.324758,14.156004,7.03668\C,0,
 0.643196,13.559262,10.41037\C,0,0.49313,14.908981,10.614615\H,0,0.8464
 16,15.527765,10.001588\C,0,-0.193645,15.345922,11.749488\C,0,-1.086705
 ,17.232903,12.935131\H,0,-1.12721,18.199164,12.860144\H,0,-1.985307,16
 .868246,12.906828\H,0,-0.665809,16.989798,13.77487\C,0,-0.68789,14.422
 609,12.669174\H,0,-1.143391,14.723411,13.43451\C,0,-0.51159,13.058142,
 12.460844\H,0,-0.836838,12.441141,13.09094\C,0,0.146944,12.605805,11.3
 20282\C,0,0.432013,11.259003,10.786619\C,0,0.12436,9.983674,11.240334\
 H,0,-0.320276,9.870387,12.06067\C,0,0.477172,8.869929,10.47675\H,0,0.2
 70864,8.005934,10.78516\C,0,1.131782,9.035078,9.259449\C,0,1.011312,6.
 708564,8.692523\H,0,1.342627,6.091401,8.021287\H,0,1.32008,6.429479,9.
 568589\H,0,0.041385,6.712777,8.677789\C,0,1.467514,10.310569,8.808943\
 H,0,1.929943,10.423532,7.998236\C,0,1.113529,11.401625,9.567713\\Versi
 on=ES64L-G16RevC.01\State=1-A\HF=-1266.1502176\RMSD=6.485e-09\Dipole=-
 0.7729864,-0.6661608,0.9485031\Polar=272.3750875,2.1433222,342.4348353
 ,-11.4730587,7.2187566,292.0282696\HyperPolar=-161.933499,-64.8869047,
 -16.638,-260.3019594,25.0865849,-70.3956683,73.0891827,61.7192013,56.8
 984611,150.0380595\Quadrupole=-4.7045174,6.0468756,-1.3423582,0.970216
 4,-2.8561362,1.45835\PG=C01 [X(C27H20O3)]\\@
 The archive entry for this job was punched.


 ON A TOMBSTONE, "HERE LIES LESTER MOORE,
 FOUR SLUGS FROM A 44, NO LES, NO MORE".
 Job cpu time:       1 days  1 hours 20 minutes 19.0 seconds.
 Elapsed time:       1 days  1 hours 23 minutes 53.4 seconds.
 File lengths (MBytes):  RWF=   3236 Int=      0 D2E=      0 Chk=     42 Scr=      1
 Normal termination of Gaussian 16 at Fri Oct 31 02:25:47 2025.
