 Entering Gaussian System, Link 0=g16
 Initial command:
 /home/psl/g16/l1.exe "/home/psl/g16/scratch/Gau-75007.inp" -scrdir="/home/psl/g16/scratch/"
 Entering Link 1 = /home/psl/g16/l1.exe PID=     75009.
  
 Copyright (c) 1988-2019, Gaussian, Inc.  All Rights Reserved.
  
 This is part of the Gaussian(R) 16 program.  It is based on
 the Gaussian(R) 09 system (copyright 2009, Gaussian, Inc.),
 the Gaussian(R) 03 system (copyright 2003, Gaussian, Inc.),
 the Gaussian(R) 98 system (copyright 1998, Gaussian, Inc.),
 the Gaussian(R) 94 system (copyright 1995, Gaussian, Inc.),
 the Gaussian 92(TM) system (copyright 1992, Gaussian, Inc.),
 the Gaussian 90(TM) system (copyright 1990, Gaussian, Inc.),
 the Gaussian 88(TM) system (copyright 1988, Gaussian, Inc.),
 the Gaussian 86(TM) system (copyright 1986, Carnegie Mellon
 University), and the Gaussian 82(TM) system (copyright 1983,
 Carnegie Mellon University). Gaussian is a federally registered
 trademark of Gaussian, Inc.
  
 This software contains proprietary and confidential information,
 including trade secrets, belonging to Gaussian, Inc.
  
 This software is provided under written license and may be
 used, copied, transmitted, or stored only in accord with that
 written license.
  
 The following legend is applicable only to US Government
 contracts under FAR:
  
                    RESTRICTED RIGHTS LEGEND
  
 Use, reproduction and disclosure by the US Government is
 subject to restrictions as set forth in subparagraphs (a)
 and (c) of the Commercial Computer Software - Restricted
 Rights clause in FAR 52.227-19.
  
 Gaussian, Inc.
 340 Quinnipiac St., Bldg. 40, Wallingford CT 06492
  
  
 ---------------------------------------------------------------
 Warning -- This program may not be used in any manner that
 competes with the business of Gaussian, Inc. or will provide
 assistance to any competitor of Gaussian, Inc.  The licensee
 of this program is prohibited from giving any competitor of
 Gaussian, Inc. access to this program.  By using this program,
 the user acknowledges that Gaussian, Inc. is engaged in the
 business of creating and licensing software in the field of
 computational chemistry and represents and warrants to the
 licensee that it is not a competitor of Gaussian, Inc. and that
 it will not use this program in any manner prohibited above.
 ---------------------------------------------------------------
  

 Cite this work as:
 Gaussian 16, Revision C.01,
 M. J. Frisch, G. W. Trucks, H. B. Schlegel, G. E. Scuseria, 
 M. A. Robb, J. R. Cheeseman, G. Scalmani, V. Barone, 
 G. A. Petersson, H. Nakatsuji, X. Li, M. Caricato, A. V. Marenich, 
 J. Bloino, B. G. Janesko, R. Gomperts, B. Mennucci, H. P. Hratchian, 
 J. V. Ortiz, A. F. Izmaylov, J. L. Sonnenberg, D. Williams-Young, 
 F. Ding, F. Lipparini, F. Egidi, J. Goings, B. Peng, A. Petrone, 
 T. Henderson, D. Ranasinghe, V. G. Zakrzewski, J. Gao, N. Rega, 
 G. Zheng, W. Liang, M. Hada, M. Ehara, K. Toyota, R. Fukuda, 
 J. Hasegawa, M. Ishida, T. Nakajima, Y. Honda, O. Kitao, H. Nakai, 
 T. Vreven, K. Throssell, J. A. Montgomery, Jr., J. E. Peralta, 
 F. Ogliaro, M. J. Bearpark, J. J. Heyd, E. N. Brothers, K. N. Kudin, 
 V. N. Staroverov, T. A. Keith, R. Kobayashi, J. Normand, 
 K. Raghavachari, A. P. Rendell, J. C. Burant, S. S. Iyengar, 
 J. Tomasi, M. Cossi, J. M. Millam, M. Klene, C. Adamo, R. Cammi, 
 J. W. Ochterski, R. L. Martin, K. Morokuma, O. Farkas, 
 J. B. Foresman, and D. J. Fox, Gaussian, Inc., Wallingford CT, 2019.
 
 ******************************************
 Gaussian 16:  ES64L-G16RevC.01  3-Jul-2019
                22-Oct-2025 
 ******************************************
 %chk=FX_OPT_WB97XD_6-311++GDP_G_251022.chk
 --------------------------------------------
 # opt wb97xd/6-311++g(d,p) geom=connectivity
 --------------------------------------------
 1/18=20,19=15,26=3,38=1,57=2/1,3;
 2/9=110,12=2,17=6,18=5,40=1/2;
 3/5=4,6=6,7=1111,11=2,25=1,30=1,71=1,74=-58/1,2,3;
 4//1;
 5/5=2,38=5/2;
 6/7=2,8=2,9=2,10=2,28=1/1;
 7//1,2,3,16;
 1/18=20,19=15,26=3/3(2);
 2/9=110/2;
 99//99;
 2/9=110/2;
 3/5=4,6=6,7=1111,11=2,25=1,30=1,71=1,74=-58/1,2,3;
 4/5=5,16=3,69=1/1;
 5/5=2,38=5/2;
 7//1,2,3,16;
 1/18=20,19=15,26=3/3(-5);
 2/9=110/2;
 6/7=2,8=2,9=2,10=2,19=2,28=1/1;
 99/9=1/99;
 -------------------
 Title Card Required
 -------------------
 Symbolic Z-matrix:
 Charge =  0 Multiplicity = 1
 C                    -2.99568   0.00004  -2.99873 
 C                    -3.2865    0.00001  -1.64352 
 C                    -2.24053   0.00002  -0.73997 
 C                    -0.92055   0.00004  -1.184 
 C                    -0.63207   0.00009  -2.52957 
 C                    -1.68056   0.00009  -3.43886 
 H                    -3.79441   0.00004  -3.71362 
 H                    -4.30458   0.       -1.30745 
 H                     0.38461   0.00015  -2.86858 
 C                    -2.24165   0.0001    0.73723 
 C                    -0.92233   0.0001    1.18325 
 C                    -3.28898   0.00016   1.6392 
 C                    -0.63587   0.0002    2.52924 
 C                    -3.00017   0.00026   2.99487 
 H                    -4.30655   0.00013   1.3016 
 C                    -1.68573   0.0003    3.43696 
 H                     0.38031   0.00024   2.86974 
 H                    -3.79999   0.00031   3.70854 
 C                     0.05538   0.00003   0.0004 
 C                     0.91247   1.26447   0.00098 
 C                     2.28832   1.19946   0.00008 
 C                     0.31533   2.52227   0.00206 
 C                     3.06821   2.34694   0.00025 
 C                     1.07397   3.67045   0.00218 
 H                    -0.75396   2.584     0.00278 
 C                     2.46185   3.57995   0.00125 
 H                     4.13194   2.23567  -0.00041 
 H                     0.59621   4.62915   0.00299 
 H                     3.06025   4.46881   0.00138 
 C                     0.91227  -1.26456   0.00098 
 C                     0.31494  -2.52229   0.00208 
 C                     2.28811  -1.19976   0.00018 
 C                     1.07342  -3.67056   0.0023 
 H                    -0.75436  -2.58387   0.00275 
 C                     3.06786  -2.34735   0.00047 
 C                     2.46133  -3.58026   0.00148 
 H                     0.59554  -4.6292    0.00311 
 H                     4.1316   -2.2362   -0.00011 
 H                     3.05958  -4.46923   0.0017 
 O                     2.9685   -0.00021  -0.00093 
 O                    -1.40252   0.00014  -4.84157 
 O                    -1.40977   0.00042   4.84008 
 C                    -2.63196  -0.0024   -5.5719 
 H                    -3.19499  -0.87656  -5.31941 
 H                    -3.19744   0.87074  -5.32137 
 C                    -2.33178  -0.00367  -7.08235 
 H                    -1.76842   0.8703   -7.33477 
 H                    -1.76663  -0.87701  -7.33295 
 C                    -2.64028   0.00321   5.56859 
 H                    -3.20546  -0.86993   5.3174 
 H                    -3.20286   0.87737   5.31509 
 C                    -2.34233   0.00477   7.07949 
 H                    -1.77752   0.87813   7.33074 
 H                    -1.77939  -0.86917   7.33291 
 O                    -3.56122  -0.00569  -7.81268 
 H                    -3.37456  -0.00589  -8.75436 
 O                    -3.57285   0.00699   7.80799 
 H                    -3.38759   0.00732   8.74995 
 

 GradGradGradGradGradGradGradGradGradGradGradGradGradGradGradGradGradGrad
 Berny optimization.
 Initialization pass.
                           ----------------------------
                           !    Initial Parameters    !
                           ! (Angstroms and Degrees)  !
 --------------------------                            --------------------------
 ! Name  Definition              Value          Derivative Info.                !
 --------------------------------------------------------------------------------
 ! R1    R(1,2)                  1.3861         estimate D2E/DX2                !
 ! R2    R(1,6)                  1.3868         estimate D2E/DX2                !
 ! R3    R(1,7)                  1.0719         estimate D2E/DX2                !
 ! R4    R(2,3)                  1.3822         estimate D2E/DX2                !
 ! R5    R(2,8)                  1.0721         estimate D2E/DX2                !
 ! R6    R(3,4)                  1.3927         estimate D2E/DX2                !
 ! R7    R(3,10)                 1.4772         estimate D2E/DX2                !
 ! R8    R(4,5)                  1.3761         estimate D2E/DX2                !
 ! R9    R(4,19)                 1.5347         estimate D2E/DX2                !
 ! R10   R(5,6)                  1.3879         estimate D2E/DX2                !
 ! R11   R(5,9)                  1.0717         estimate D2E/DX2                !
 ! R12   R(6,41)                 1.43           estimate D2E/DX2                !
 ! R13   R(10,11)                1.3927         estimate D2E/DX2                !
 ! R14   R(10,12)                1.3822         estimate D2E/DX2                !
 ! R15   R(11,13)                1.3761         estimate D2E/DX2                !
 ! R16   R(11,19)                1.5346         estimate D2E/DX2                !
 ! R17   R(12,14)                1.3861         estimate D2E/DX2                !
 ! R18   R(12,15)                1.0721         estimate D2E/DX2                !
 ! R19   R(13,16)                1.3879         estimate D2E/DX2                !
 ! R20   R(13,17)                1.0717         estimate D2E/DX2                !
 ! R21   R(14,16)                1.3868         estimate D2E/DX2                !
 ! R22   R(14,18)                1.0719         estimate D2E/DX2                !
 ! R23   R(16,42)                1.43           estimate D2E/DX2                !
 ! R24   R(19,20)                1.5276         estimate D2E/DX2                !
 ! R25   R(19,30)                1.5276         estimate D2E/DX2                !
 ! R26   R(20,21)                1.3774         estimate D2E/DX2                !
 ! R27   R(20,22)                1.3923         estimate D2E/DX2                !
 ! R28   R(21,23)                1.3874         estimate D2E/DX2                !
 ! R29   R(21,40)                1.3791         estimate D2E/DX2                !
 ! R30   R(22,24)                1.3762         estimate D2E/DX2                !
 ! R31   R(22,25)                1.0711         estimate D2E/DX2                !
 ! R32   R(23,26)                1.374          estimate D2E/DX2                !
 ! R33   R(23,27)                1.0695         estimate D2E/DX2                !
 ! R34   R(24,26)                1.3908         estimate D2E/DX2                !
 ! R35   R(24,28)                1.0711         estimate D2E/DX2                !
 ! R36   R(26,29)                1.0715         estimate D2E/DX2                !
 ! R37   R(30,31)                1.3924         estimate D2E/DX2                !
 ! R38   R(30,32)                1.3774         estimate D2E/DX2                !
 ! R39   R(31,33)                1.3762         estimate D2E/DX2                !
 ! R40   R(31,34)                1.0711         estimate D2E/DX2                !
 ! R41   R(32,35)                1.3874         estimate D2E/DX2                !
 ! R42   R(32,40)                1.3791         estimate D2E/DX2                !
 ! R43   R(33,36)                1.3909         estimate D2E/DX2                !
 ! R44   R(33,37)                1.0711         estimate D2E/DX2                !
 ! R45   R(35,36)                1.374          estimate D2E/DX2                !
 ! R46   R(35,38)                1.0695         estimate D2E/DX2                !
 ! R47   R(36,39)                1.0715         estimate D2E/DX2                !
 ! R48   R(41,43)                1.43           estimate D2E/DX2                !
 ! R49   R(42,49)                1.43           estimate D2E/DX2                !
 ! R50   R(43,44)                1.07           estimate D2E/DX2                !
 ! R51   R(43,45)                1.07           estimate D2E/DX2                !
 ! R52   R(43,46)                1.54           estimate D2E/DX2                !
 ! R53   R(46,47)                1.07           estimate D2E/DX2                !
 ! R54   R(46,48)                1.07           estimate D2E/DX2                !
 ! R55   R(46,55)                1.43           estimate D2E/DX2                !
 ! R56   R(49,50)                1.07           estimate D2E/DX2                !
 ! R57   R(49,51)                1.07           estimate D2E/DX2                !
 ! R58   R(49,52)                1.54           estimate D2E/DX2                !
 ! R59   R(52,53)                1.07           estimate D2E/DX2                !
 ! R60   R(52,54)                1.07           estimate D2E/DX2                !
 ! R61   R(52,57)                1.43           estimate D2E/DX2                !
 ! R62   R(55,56)                0.96           estimate D2E/DX2                !
 ! R63   R(57,58)                0.96           estimate D2E/DX2                !
 ! A1    A(2,1,6)              120.6156         estimate D2E/DX2                !
 ! A2    A(2,1,7)              119.7177         estimate D2E/DX2                !
 ! A3    A(6,1,7)              119.6667         estimate D2E/DX2                !
 ! A4    A(1,2,3)              118.7099         estimate D2E/DX2                !
 ! A5    A(1,2,8)              120.3804         estimate D2E/DX2                !
 ! A6    A(3,2,8)              120.9097         estimate D2E/DX2                !
 ! A7    A(2,3,4)              120.5859         estimate D2E/DX2                !
 ! A8    A(2,3,10)             130.7781         estimate D2E/DX2                !
 ! A9    A(4,3,10)             108.636          estimate D2E/DX2                !
 ! A10   A(3,4,5)              120.693          estimate D2E/DX2                !
 ! A11   A(3,4,19)             110.896          estimate D2E/DX2                !
 ! A12   A(5,4,19)             128.411          estimate D2E/DX2                !
 ! A13   A(4,5,6)              118.8326         estimate D2E/DX2                !
 ! A14   A(4,5,9)              120.5413         estimate D2E/DX2                !
 ! A15   A(6,5,9)              120.6262         estimate D2E/DX2                !
 ! A16   A(1,6,5)              120.5631         estimate D2E/DX2                !
 ! A17   A(1,6,41)             119.7153         estimate D2E/DX2                !
 ! A18   A(5,6,41)             119.7216         estimate D2E/DX2                !
 ! A19   A(3,10,11)            108.6351         estimate D2E/DX2                !
 ! A20   A(3,10,12)            130.7792         estimate D2E/DX2                !
 ! A21   A(11,10,12)           120.5857         estimate D2E/DX2                !
 ! A22   A(10,11,13)           120.6937         estimate D2E/DX2                !
 ! A23   A(10,11,19)           110.8975         estimate D2E/DX2                !
 ! A24   A(13,11,19)           128.4088         estimate D2E/DX2                !
 ! A25   A(10,12,14)           118.7094         estimate D2E/DX2                !
 ! A26   A(10,12,15)           120.9102         estimate D2E/DX2                !
 ! A27   A(14,12,15)           120.3804         estimate D2E/DX2                !
 ! A28   A(11,13,16)           118.832          estimate D2E/DX2                !
 ! A29   A(11,13,17)           120.5395         estimate D2E/DX2                !
 ! A30   A(16,13,17)           120.6285         estimate D2E/DX2                !
 ! A31   A(12,14,16)           120.616          estimate D2E/DX2                !
 ! A32   A(12,14,18)           119.7165         estimate D2E/DX2                !
 ! A33   A(16,14,18)           119.6675         estimate D2E/DX2                !
 ! A34   A(13,16,14)           120.5632         estimate D2E/DX2                !
 ! A35   A(13,16,42)           119.7201         estimate D2E/DX2                !
 ! A36   A(14,16,42)           119.7167         estimate D2E/DX2                !
 ! A37   A(4,19,11)            100.9354         estimate D2E/DX2                !
 ! A38   A(4,19,20)            110.9218         estimate D2E/DX2                !
 ! A39   A(4,19,30)            110.9177         estimate D2E/DX2                !
 ! A40   A(11,19,20)           110.9244         estimate D2E/DX2                !
 ! A41   A(11,19,30)           110.9239         estimate D2E/DX2                !
 ! A42   A(20,19,30)           111.7475         estimate D2E/DX2                !
 ! A43   A(19,20,21)           121.4254         estimate D2E/DX2                !
 ! A44   A(19,20,22)           120.4732         estimate D2E/DX2                !
 ! A45   A(21,20,22)           118.1014         estimate D2E/DX2                !
 ! A46   A(20,21,23)           121.4969         estimate D2E/DX2                !
 ! A47   A(20,21,40)           122.2575         estimate D2E/DX2                !
 ! A48   A(23,21,40)           116.2456         estimate D2E/DX2                !
 ! A49   A(20,22,24)           121.1503         estimate D2E/DX2                !
 ! A50   A(20,22,25)           118.7002         estimate D2E/DX2                !
 ! A51   A(24,22,25)           120.1495         estimate D2E/DX2                !
 ! A52   A(21,23,26)           119.6112         estimate D2E/DX2                !
 ! A53   A(21,23,27)           118.2308         estimate D2E/DX2                !
 ! A54   A(26,23,27)           122.1579         estimate D2E/DX2                !
 ! A55   A(22,24,26)           119.7226         estimate D2E/DX2                !
 ! A56   A(22,24,28)           120.0575         estimate D2E/DX2                !
 ! A57   A(26,24,28)           120.2198         estimate D2E/DX2                !
 ! A58   A(23,26,24)           119.9176         estimate D2E/DX2                !
 ! A59   A(23,26,29)           119.8644         estimate D2E/DX2                !
 ! A60   A(24,26,29)           120.218          estimate D2E/DX2                !
 ! A61   A(19,30,31)           120.4739         estimate D2E/DX2                !
 ! A62   A(19,30,32)           121.425          estimate D2E/DX2                !
 ! A63   A(31,30,32)           118.1011         estimate D2E/DX2                !
 ! A64   A(30,31,33)           121.1496         estimate D2E/DX2                !
 ! A65   A(30,31,34)           118.7003         estimate D2E/DX2                !
 ! A66   A(33,31,34)           120.1502         estimate D2E/DX2                !
 ! A67   A(30,32,35)           121.4983         estimate D2E/DX2                !
 ! A68   A(30,32,40)           122.2587         estimate D2E/DX2                !
 ! A69   A(35,32,40)           116.2429         estimate D2E/DX2                !
 ! A70   A(31,33,36)           119.7235         estimate D2E/DX2                !
 ! A71   A(31,33,37)           120.0576         estimate D2E/DX2                !
 ! A72   A(36,33,37)           120.2189         estimate D2E/DX2                !
 ! A73   A(32,35,36)           119.6103         estimate D2E/DX2                !
 ! A74   A(32,35,38)           118.2298         estimate D2E/DX2                !
 ! A75   A(36,35,38)           122.1599         estimate D2E/DX2                !
 ! A76   A(33,36,35)           119.9173         estimate D2E/DX2                !
 ! A77   A(33,36,39)           120.2169         estimate D2E/DX2                !
 ! A78   A(35,36,39)           119.8658         estimate D2E/DX2                !
 ! A79   A(21,40,32)           120.8858         estimate D2E/DX2                !
 ! A80   A(6,41,43)            109.5            estimate D2E/DX2                !
 ! A81   A(16,42,49)           109.5            estimate D2E/DX2                !
 ! A82   A(41,43,44)           109.4712         estimate D2E/DX2                !
 ! A83   A(41,43,45)           109.4712         estimate D2E/DX2                !
 ! A84   A(41,43,46)           109.4712         estimate D2E/DX2                !
 ! A85   A(44,43,45)           109.4712         estimate D2E/DX2                !
 ! A86   A(44,43,46)           109.4713         estimate D2E/DX2                !
 ! A87   A(45,43,46)           109.4712         estimate D2E/DX2                !
 ! A88   A(43,46,47)           109.4712         estimate D2E/DX2                !
 ! A89   A(43,46,48)           109.4712         estimate D2E/DX2                !
 ! A90   A(43,46,55)           109.4712         estimate D2E/DX2                !
 ! A91   A(47,46,48)           109.4712         estimate D2E/DX2                !
 ! A92   A(47,46,55)           109.4713         estimate D2E/DX2                !
 ! A93   A(48,46,55)           109.4712         estimate D2E/DX2                !
 ! A94   A(42,49,50)           109.4712         estimate D2E/DX2                !
 ! A95   A(42,49,51)           109.4712         estimate D2E/DX2                !
 ! A96   A(42,49,52)           109.4712         estimate D2E/DX2                !
 ! A97   A(50,49,51)           109.4712         estimate D2E/DX2                !
 ! A98   A(50,49,52)           109.4713         estimate D2E/DX2                !
 ! A99   A(51,49,52)           109.4712         estimate D2E/DX2                !
 ! A100  A(49,52,53)           109.4712         estimate D2E/DX2                !
 ! A101  A(49,52,54)           109.4712         estimate D2E/DX2                !
 ! A102  A(49,52,57)           109.4712         estimate D2E/DX2                !
 ! A103  A(53,52,54)           109.4712         estimate D2E/DX2                !
 ! A104  A(53,52,57)           109.4713         estimate D2E/DX2                !
 ! A105  A(54,52,57)           109.4712         estimate D2E/DX2                !
 ! A106  A(46,55,56)           109.5            estimate D2E/DX2                !
 ! A107  A(52,57,58)           109.5            estimate D2E/DX2                !
 ! D1    D(6,1,2,3)             -0.0003         estimate D2E/DX2                !
 ! D2    D(6,1,2,8)            179.9988         estimate D2E/DX2                !
 ! D3    D(7,1,2,3)           -179.9998         estimate D2E/DX2                !
 ! D4    D(7,1,2,8)             -0.0008         estimate D2E/DX2                !
 ! D5    D(2,1,6,5)              0.0005         estimate D2E/DX2                !
 ! D6    D(2,1,6,41)          -179.9991         estimate D2E/DX2                !
 ! D7    D(7,1,6,5)           -180.0            estimate D2E/DX2                !
 ! D8    D(7,1,6,41)             0.0005         estimate D2E/DX2                !
 ! D9    D(1,2,3,4)             -0.0009         estimate D2E/DX2                !
 ! D10   D(1,2,3,10)           179.9948         estimate D2E/DX2                !
 ! D11   D(8,2,3,4)           -180.0            estimate D2E/DX2                !
 ! D12   D(8,2,3,10)            -0.0042         estimate D2E/DX2                !
 ! D13   D(2,3,4,5)              0.0019         estimate D2E/DX2                !
 ! D14   D(2,3,4,19)          -179.9992         estimate D2E/DX2                !
 ! D15   D(10,3,4,5)          -179.9947         estimate D2E/DX2                !
 ! D16   D(10,3,4,19)            0.0042         estimate D2E/DX2                !
 ! D17   D(2,3,10,11)         -179.9988         estimate D2E/DX2                !
 ! D18   D(2,3,10,12)            0.001          estimate D2E/DX2                !
 ! D19   D(4,3,10,11)           -0.0027         estimate D2E/DX2                !
 ! D20   D(4,3,10,12)          179.9971         estimate D2E/DX2                !
 ! D21   D(3,4,5,6)             -0.0017         estimate D2E/DX2                !
 ! D22   D(3,4,5,9)            179.9976         estimate D2E/DX2                !
 ! D23   D(19,4,5,6)           179.9997         estimate D2E/DX2                !
 ! D24   D(19,4,5,9)            -0.001          estimate D2E/DX2                !
 ! D25   D(3,4,19,11)           -0.0039         estimate D2E/DX2                !
 ! D26   D(3,4,19,20)         -117.6028         estimate D2E/DX2                !
 ! D27   D(3,4,19,30)          117.5927         estimate D2E/DX2                !
 ! D28   D(5,4,19,11)          179.9948         estimate D2E/DX2                !
 ! D29   D(5,4,19,20)           62.396          estimate D2E/DX2                !
 ! D30   D(5,4,19,30)          -62.4085         estimate D2E/DX2                !
 ! D31   D(4,5,6,1)              0.0005         estimate D2E/DX2                !
 ! D32   D(4,5,6,41)          -179.9999         estimate D2E/DX2                !
 ! D33   D(9,5,6,1)           -179.9988         estimate D2E/DX2                !
 ! D34   D(9,5,6,41)             0.0008         estimate D2E/DX2                !
 ! D35   D(1,6,41,43)           -0.1077         estimate D2E/DX2                !
 ! D36   D(5,6,41,43)          179.8927         estimate D2E/DX2                !
 ! D37   D(3,10,11,13)         179.9985         estimate D2E/DX2                !
 ! D38   D(3,10,11,19)           0.0001         estimate D2E/DX2                !
 ! D39   D(12,10,11,13)         -0.0013         estimate D2E/DX2                !
 ! D40   D(12,10,11,19)       -179.9998         estimate D2E/DX2                !
 ! D41   D(3,10,12,14)        -179.9984         estimate D2E/DX2                !
 ! D42   D(3,10,12,15)           0.0018         estimate D2E/DX2                !
 ! D43   D(11,10,12,14)          0.0014         estimate D2E/DX2                !
 ! D44   D(11,10,12,15)       -179.9984         estimate D2E/DX2                !
 ! D45   D(10,11,13,16)         -0.0003         estimate D2E/DX2                !
 ! D46   D(10,11,13,17)       -179.9974         estimate D2E/DX2                !
 ! D47   D(19,11,13,16)        179.9978         estimate D2E/DX2                !
 ! D48   D(19,11,13,17)          0.0007         estimate D2E/DX2                !
 ! D49   D(10,11,19,4)           0.0022         estimate D2E/DX2                !
 ! D50   D(10,11,19,20)        117.5992         estimate D2E/DX2                !
 ! D51   D(10,11,19,30)       -117.5899         estimate D2E/DX2                !
 ! D52   D(13,11,19,4)        -179.9961         estimate D2E/DX2                !
 ! D53   D(13,11,19,20)        -62.3991         estimate D2E/DX2                !
 ! D54   D(13,11,19,30)         62.4119         estimate D2E/DX2                !
 ! D55   D(10,12,14,16)          0.0001         estimate D2E/DX2                !
 ! D56   D(10,12,14,18)       -180.0            estimate D2E/DX2                !
 ! D57   D(15,12,14,16)        179.9999         estimate D2E/DX2                !
 ! D58   D(15,12,14,18)         -0.0002         estimate D2E/DX2                !
 ! D59   D(11,13,16,14)          0.0019         estimate D2E/DX2                !
 ! D60   D(11,13,16,42)       -179.9989         estimate D2E/DX2                !
 ! D61   D(17,13,16,14)        179.9989         estimate D2E/DX2                !
 ! D62   D(17,13,16,42)         -0.0019         estimate D2E/DX2                !
 ! D63   D(12,14,16,13)         -0.0018         estimate D2E/DX2                !
 ! D64   D(12,14,16,42)        179.999          estimate D2E/DX2                !
 ! D65   D(18,14,16,13)        179.9983         estimate D2E/DX2                !
 ! D66   D(18,14,16,42)         -0.0009         estimate D2E/DX2                !
 ! D67   D(13,16,42,49)        179.8849         estimate D2E/DX2                !
 ! D68   D(14,16,42,49)         -0.1159         estimate D2E/DX2                !
 ! D69   D(4,19,20,21)        -124.2442         estimate D2E/DX2                !
 ! D70   D(4,19,20,22)          55.7369         estimate D2E/DX2                !
 ! D71   D(11,19,20,21)        124.4342         estimate D2E/DX2                !
 ! D72   D(11,19,20,22)        -55.5847         estimate D2E/DX2                !
 ! D73   D(30,19,20,21)          0.09           estimate D2E/DX2                !
 ! D74   D(30,19,20,22)       -179.9289         estimate D2E/DX2                !
 ! D75   D(4,19,30,31)         -55.7354         estimate D2E/DX2                !
 ! D76   D(4,19,30,32)         124.2512         estimate D2E/DX2                !
 ! D77   D(11,19,30,31)         55.5837         estimate D2E/DX2                !
 ! D78   D(11,19,30,32)       -124.4297         estimate D2E/DX2                !
 ! D79   D(20,19,30,31)        179.9281         estimate D2E/DX2                !
 ! D80   D(20,19,30,32)         -0.0852         estimate D2E/DX2                !
 ! D81   D(19,20,21,23)        179.9828         estimate D2E/DX2                !
 ! D82   D(19,20,21,40)         -0.0232         estimate D2E/DX2                !
 ! D83   D(22,20,21,23)          0.0012         estimate D2E/DX2                !
 ! D84   D(22,20,21,40)        179.9953         estimate D2E/DX2                !
 ! D85   D(19,20,22,24)       -179.9796         estimate D2E/DX2                !
 ! D86   D(19,20,22,25)          0.0191         estimate D2E/DX2                !
 ! D87   D(21,20,22,24)          0.0021         estimate D2E/DX2                !
 ! D88   D(21,20,22,25)       -179.9992         estimate D2E/DX2                !
 ! D89   D(20,21,23,26)         -0.0045         estimate D2E/DX2                !
 ! D90   D(20,21,23,27)        179.9954         estimate D2E/DX2                !
 ! D91   D(40,21,23,26)       -179.9989         estimate D2E/DX2                !
 ! D92   D(40,21,23,27)          0.001          estimate D2E/DX2                !
 ! D93   D(20,21,40,32)         -0.0602         estimate D2E/DX2                !
 ! D94   D(23,21,40,32)        179.9342         estimate D2E/DX2                !
 ! D95   D(20,22,24,26)         -0.0021         estimate D2E/DX2                !
 ! D96   D(20,22,24,28)        179.9982         estimate D2E/DX2                !
 ! D97   D(25,22,24,26)        179.9992         estimate D2E/DX2                !
 ! D98   D(25,22,24,28)         -0.0005         estimate D2E/DX2                !
 ! D99   D(21,23,26,24)          0.0045         estimate D2E/DX2                !
 ! D100  D(21,23,26,29)       -179.9993         estimate D2E/DX2                !
 ! D101  D(27,23,26,24)       -179.9954         estimate D2E/DX2                !
 ! D102  D(27,23,26,29)          0.0008         estimate D2E/DX2                !
 ! D103  D(22,24,26,23)         -0.0012         estimate D2E/DX2                !
 ! D104  D(22,24,26,29)       -179.9974         estimate D2E/DX2                !
 ! D105  D(28,24,26,23)        179.9985         estimate D2E/DX2                !
 ! D106  D(28,24,26,29)          0.0023         estimate D2E/DX2                !
 ! D107  D(19,30,31,33)        179.984          estimate D2E/DX2                !
 ! D108  D(19,30,31,34)         -0.0151         estimate D2E/DX2                !
 ! D109  D(32,30,31,33)         -0.003          estimate D2E/DX2                !
 ! D110  D(32,30,31,34)        179.9978         estimate D2E/DX2                !
 ! D111  D(19,30,32,35)       -179.9885         estimate D2E/DX2                !
 ! D112  D(19,30,32,40)          0.0134         estimate D2E/DX2                !
 ! D113  D(31,30,32,35)         -0.0016         estimate D2E/DX2                !
 ! D114  D(31,30,32,40)       -179.9997         estimate D2E/DX2                !
 ! D115  D(30,31,33,36)          0.0038         estimate D2E/DX2                !
 ! D116  D(30,31,33,37)       -179.9977         estimate D2E/DX2                !
 ! D117  D(34,31,33,36)       -179.9971         estimate D2E/DX2                !
 ! D118  D(34,31,33,37)          0.0015         estimate D2E/DX2                !
 ! D119  D(30,32,35,36)          0.0055         estimate D2E/DX2                !
 ! D120  D(30,32,35,38)       -179.9948         estimate D2E/DX2                !
 ! D121  D(40,32,35,36)       -179.9963         estimate D2E/DX2                !
 ! D122  D(40,32,35,38)          0.0034         estimate D2E/DX2                !
 ! D123  D(30,32,40,21)          0.0652         estimate D2E/DX2                !
 ! D124  D(35,32,40,21)       -179.933          estimate D2E/DX2                !
 ! D125  D(31,33,36,35)          0.0002         estimate D2E/DX2                !
 ! D126  D(31,33,36,39)        179.9963         estimate D2E/DX2                !
 ! D127  D(37,33,36,35)       -179.9984         estimate D2E/DX2                !
 ! D128  D(37,33,36,39)         -0.0022         estimate D2E/DX2                !
 ! D129  D(32,35,36,33)         -0.0047         estimate D2E/DX2                !
 ! D130  D(32,35,36,39)        179.9991         estimate D2E/DX2                !
 ! D131  D(38,35,36,33)        179.9956         estimate D2E/DX2                !
 ! D132  D(38,35,36,39)         -0.0006         estimate D2E/DX2                !
 ! D133  D(6,41,43,44)         -59.9476         estimate D2E/DX2                !
 ! D134  D(6,41,43,45)          60.0523         estimate D2E/DX2                !
 ! D135  D(6,41,43,46)        -179.9477         estimate D2E/DX2                !
 ! D136  D(16,42,49,50)         60.0562         estimate D2E/DX2                !
 ! D137  D(16,42,49,51)        -59.9438         estimate D2E/DX2                !
 ! D138  D(16,42,49,52)       -179.9438         estimate D2E/DX2                !
 ! D139  D(41,43,46,47)        -59.978          estimate D2E/DX2                !
 ! D140  D(41,43,46,48)         60.022          estimate D2E/DX2                !
 ! D141  D(41,43,46,55)       -179.978          estimate D2E/DX2                !
 ! D142  D(44,43,46,47)       -179.978          estimate D2E/DX2                !
 ! D143  D(44,43,46,48)        -59.978          estimate D2E/DX2                !
 ! D144  D(44,43,46,55)         60.022          estimate D2E/DX2                !
 ! D145  D(45,43,46,47)         60.022          estimate D2E/DX2                !
 ! D146  D(45,43,46,48)       -179.978          estimate D2E/DX2                !
 ! D147  D(45,43,46,55)        -59.978          estimate D2E/DX2                !
 ! D148  D(43,46,55,56)        179.9622         estimate D2E/DX2                !
 ! D149  D(47,46,55,56)         59.9622         estimate D2E/DX2                !
 ! D150  D(48,46,55,56)        -60.0378         estimate D2E/DX2                !
 ! D151  D(42,49,52,53)         60.0244         estimate D2E/DX2                !
 ! D152  D(42,49,52,54)        -59.9756         estimate D2E/DX2                !
 ! D153  D(42,49,52,57)       -179.9756         estimate D2E/DX2                !
 ! D154  D(50,49,52,53)       -179.9756         estimate D2E/DX2                !
 ! D155  D(50,49,52,54)         60.0244         estimate D2E/DX2                !
 ! D156  D(50,49,52,57)        -59.9756         estimate D2E/DX2                !
 ! D157  D(51,49,52,53)        -59.9756         estimate D2E/DX2                !
 ! D158  D(51,49,52,54)       -179.9756         estimate D2E/DX2                !
 ! D159  D(51,49,52,57)         60.0244         estimate D2E/DX2                !
 ! D160  D(49,52,57,58)        179.9594         estimate D2E/DX2                !
 ! D161  D(53,52,57,58)        -60.0406         estimate D2E/DX2                !
 ! D162  D(54,52,57,58)         59.9594         estimate D2E/DX2                !
 --------------------------------------------------------------------------------
 Trust Radius=3.00D-01 FncErr=1.00D-07 GrdErr=1.00D-06 EigMax=2.50D+02 EigMin=1.00D-04
 Number of steps in this run=    342 maximum allowed number of steps=    348.
 GradGradGradGradGradGradGradGradGradGradGradGradGradGradGradGradGradGrad

 Stoichiometry    C29H24O5
 Framework group  C1[X(C29H24O5)]
 Deg. of freedom   168
 Full point group                 C1      NOp   1
 Largest Abelian subgroup         C1      NOp   1
 Largest concise Abelian subgroup C1      NOp   1
                         Standard orientation:                         
 ---------------------------------------------------------------------
 Center     Atomic      Atomic             Coordinates (Angstroms)
 Number     Number       Type             X           Y           Z
 ---------------------------------------------------------------------
      1          6           0       -2.996252   -2.313665    0.001521
      2          6           0       -1.640786   -2.603285    0.000612
      3          6           0       -0.738164   -1.556509    0.000175
      4          6           0       -1.183362   -0.236929    0.000622
      5          6           0       -2.529191    0.050356    0.001547
      6          6           0       -3.437549   -0.998939    0.001990
      7          1           0       -3.710434   -3.113034    0.001873
      8          1           0       -1.303803   -3.621066    0.000271
      9          1           0       -2.869099    1.066733    0.001928
     10          6           0        0.739040   -1.556323   -0.000672
     11          6           0        1.183888   -0.236606   -0.000797
     12          6           0        1.641939   -2.602842   -0.001290
     13          6           0        2.529624    0.051056   -0.001509
     14          6           0        2.997346   -2.312836   -0.002006
     15          1           0        1.305243   -3.620717   -0.001224
     16          6           0        3.438278   -0.998002   -0.002096
     17          1           0        2.869214    1.067536   -0.001562
     18          1           0        3.711735   -3.112019   -0.002492
     19          6           0        0.000165    0.740059   -0.000019
     20          6           0        0.000778    1.597001    1.264523
     21          6           0       -0.001389    2.972854    1.199667
     22          6           0        0.003173    0.999721    2.522251
     23          6           0       -0.001192    3.752616    2.347233
     24          6           0        0.003334    1.758225    3.670522
     25          1           0        0.004884   -0.069579    2.583862
     26          6           0        0.001118    3.146120    3.580175
     27          1           0       -0.002866    4.816361    2.236088
     28          1           0        0.005165    1.280365    4.629162
     29          1           0        0.001268    3.744417    4.469107
     30          6           0       -0.000797    1.597092   -1.264510
     31          6           0        0.000047    0.999907   -2.522304
     32          6           0       -0.002787    2.972920   -1.199551
     33          6           0       -0.001131    1.758510   -3.670493
     34          1           0        0.001629   -0.069387   -2.584005
     35          6           0       -0.003900    3.752802   -2.347047
     36          6           0       -0.003122    3.146416   -3.580033
     37          1           0       -0.000491    1.280740   -4.629181
     38          1           0       -0.005353    4.816533   -2.235775
     39          1           0       -0.003990    3.744766   -4.468929
     40          8           0       -0.003746    3.653170    0.000076
     41          8           0       -4.840505   -0.722148    0.002949
     42          8           0        4.841151   -0.720793   -0.002818
     43          6           0       -5.569737   -1.952235    0.000725
     44          1           0       -5.317300   -2.514938   -0.873655
     45          1           0       -5.318163   -2.517585    0.873646
     46          6           0       -7.080463   -1.653391    0.000433
     47          1           0       -7.332834   -1.090359    0.874620
     48          1           0       -7.332102   -1.088369   -0.872681
     49          6           0        5.570750   -1.950663   -0.000618
     50          1           0        5.319524   -2.515965   -0.873670
     51          1           0        5.318302   -2.513565    0.873631
     52          6           0        7.081386   -1.651368    0.000027
     53          1           0        7.332684   -1.086430    0.873294
     54          1           0        7.333762   -1.088102   -0.874008
     55          8           0       -7.809696   -2.883479   -0.001274
     56          1           0       -8.751540   -2.697661   -0.000860
     57          8           0        7.810986   -2.881239    0.001653
     58          1           0        8.752775   -2.695140    0.001416
 ---------------------------------------------------------------------
 Rotational constants (GHZ):           0.1553037           0.0717045           0.0624049
 Standard basis: 6-311++G(d,p) (5D, 7F)
 There are   950 symmetry adapted cartesian basis functions of A   symmetry.
 There are   916 symmetry adapted basis functions of A   symmetry.
   916 basis functions,  1440 primitive gaussians,   950 cartesian basis functions
   119 alpha electrons      119 beta electrons
       nuclear repulsion energy      3372.2290307971 Hartrees.
 NAtoms=   58 NActive=   58 NUniq=   58 SFac= 1.00D+00 NAtFMM=   60 NAOKFM=F Big=F
 Integral buffers will be    131072 words long.
 Raffenetti 2 integral format.
 Two-electron integral symmetry is turned on.
 Nuclear repulsion after empirical dispersion term =     3372.1812316032 Hartrees.
 One-electron integrals computed using PRISM.
 NBasis=   916 RedAO= T EigKep=  1.74D-06  NBF=   916
 NBsUse=   899 1.00D-06 EigRej=  8.24D-07 NBFU=   899
 ExpMin= 3.60D-02 ExpMax= 8.59D+03 ExpMxC= 1.30D+03 IAcc=3 IRadAn=         5 AccDes= 0.00D+00
 Harris functional with IExCor= 4639 and IRadAn=       5 diagonalized for initial guess.
 HarFok:  IExCor= 4639 AccDes= 0.00D+00 IRadAn=         5 IDoV= 1 UseB2=F ITyADJ=14
 ICtDFT=  3500011 ScaDFX=  1.000000  1.000000  1.000000  1.000000
 FoFCou: FMM=F IPFlag=           0 FMFlag=      100000 FMFlg1=           0
         NFxFlg=           0 DoJE=T BraDBF=F KetDBF=T FulRan=T
         wScrn=  0.000000 ICntrl=       500 IOpCl=  0 I1Cent=   200000004 NGrid=           0
         NMat0=    1 NMatS0=      1 NMatT0=    0 NMatD0=    1 NMtDS0=    0 NMtDT0=    0
 Petite list used in FoFCou.
 Requested convergence on RMS density matrix=1.00D-08 within 128 cycles.
 Requested convergence on MAX density matrix=1.00D-06.
 Requested convergence on             energy=1.00D-06.
 No special actions if energy rises.
 SCF Done:  E(RwB97XD) =  -1495.50584687     A.U. after   16 cycles
            NFock= 16  Conv=0.96D-08     -V/T= 2.0036

 **********************************************************************

            Population analysis using the SCF Density.

 **********************************************************************

 Orbital symmetries:
       Occupied  (A) (A) (A) (A) (A) (A) (A) (A) (A) (A) (A) (A)
                 (A) (A) (A) (A) (A) (A) (A) (A) (A) (A) (A) (A)
                 (A) (A) (A) (A) (A) (A) (A) (A) (A) (A) (A) (A)
                 (A) (A) (A) (A) (A) (A) (A) (A) (A) (A) (A) (A)
                 (A) (A) (A) (A) (A) (A) (A) (A) (A) (A) (A) (A)
                 (A) (A) (A) (A) (A) (A) (A) (A) (A) (A) (A) (A)
                 (A) (A) (A) (A) (A) (A) (A) (A) (A) (A) (A) (A)
                 (A) (A) (A) (A) (A) (A) (A) (A) (A) (A) (A) (A)
                 (A) (A) (A) (A) (A) (A) (A) (A) (A) (A) (A) (A)
                 (A) (A) (A) (A) (A) (A) (A) (A) (A) (A) (A)
       Virtual   (A) (A) (A) (A) (A) (A) (A) (A) (A) (A) (A) (A)
                 (A) (A) (A) (A) (A) (A) (A) (A) (A) (A) (A) (A)
                 (A) (A) (A) (A) (A) (A) (A) (A) (A) (A) (A) (A)
                 (A) (A) (A) (A) (A) (A) (A) (A) (A) (A) (A) (A)
                 (A) (A) (A) (A) (A) (A) (A) (A) (A) (A) (A) (A)
                 (A) (A) (A) (A) (A) (A) (A) (A) (A) (A) (A) (A)
                 (A) (A) (A) (A) (A) (A) (A) (A) (A) (A) (A) (A)
                 (A) (A) (A) (A) (A) (A) (A) (A) (A) (A) (A) (A)
                 (A) (A) (A) (A) (A) (A) (A) (A) (A) (A) (A) (A)
                 (A) (A) (A) (A) (A) (A) (A) (A) (A) (A) (A) (A)
                 (A) (A) (A) (A) (A) (A) (A) (A) (A) (A) (A) (A)
                 (A) (A) (A) (A) (A) (A) (A) (A) (A) (A) (A) (A)
                 (A) (A) (A) (A) (A) (A) (A) (A) (A) (A) (A) (A)
                 (A) (A) (A) (A) (A) (A) (A) (A) (A) (A) (A) (A)
                 (A) (A) (A) (A) (A) (A) (A) (A) (A) (A) (A) (A)
                 (A) (A) (A) (A) (A) (A) (A) (A) (A) (A) (A) (A)
                 (A) (A) (A) (A) (A) (A) (A) (A) (A) (A) (A) (A)
                 (A) (A) (A) (A) (A) (A) (A) (A) (A) (A) (A) (A)
                 (A) (A) (A) (A) (A) (A) (A) (A) (A) (A) (A) (A)
                 (A) (A) (A) (A) (A) (A) (A) (A) (A) (A) (A) (A)
                 (A) (A) (A) (A) (A) (A) (A) (A) (A) (A) (A) (A)
                 (A) (A) (A) (A) (A) (A) (A) (A) (A) (A) (A) (A)
                 (A) (A) (A) (A) (A) (A) (A) (A) (A) (A) (A) (A)
                 (A) (A) (A) (A) (A) (A) (A) (A) (A) (A) (A) (A)
                 (A) (A) (A) (A) (A) (A) (A) (A) (A) (A) (A) (A)
                 (A) (A) (A) (A) (A) (A) (A) (A) (A) (A) (A) (A)
                 (A) (A) (A) (A) (A) (A) (A) (A) (A) (A) (A) (A)
                 (A) (A) (A) (A) (A) (A) (A) (A) (A) (A) (A) (A)
                 (A) (A) (A) (A) (A) (A) (A) (A) (A) (A) (A) (A)
                 (A) (A) (A) (A) (A) (A) (A) (A) (A) (A) (A) (A)
                 (A) (A) (A) (A) (A) (A) (A) (A) (A) (A) (A) (A)
                 (A) (A) (A) (A) (A) (A) (A) (A) (A) (A) (A) (A)
                 (A) (A) (A) (A) (A) (A) (A) (A) (A) (A) (A) (A)
                 (A) (A) (A) (A) (A) (A) (A) (A) (A) (A) (A) (A)
                 (A) (A) (A) (A) (A) (A) (A) (A) (A) (A) (A) (A)
                 (A) (A) (A) (A) (A) (A) (A) (A) (A) (A) (A) (A)
                 (A) (A) (A) (A) (A) (A) (A) (A) (A) (A) (A) (A)
                 (A) (A) (A) (A) (A) (A) (A) (A) (A) (A) (A) (A)
                 (A) (A) (A) (A) (A) (A) (A) (A) (A) (A) (A) (A)
                 (A) (A) (A) (A) (A) (A) (A) (A) (A) (A) (A) (A)
                 (A) (A) (A) (A) (A) (A) (A) (A) (A) (A) (A) (A)
                 (A) (A) (A) (A) (A) (A) (A) (A) (A) (A) (A) (A)
                 (A) (A) (A) (A) (A) (A) (A) (A) (A) (A) (A) (A)
                 (A) (A) (A) (A) (A) (A) (A) (A) (A) (A) (A) (A)
                 (A) (A) (A) (A) (A) (A) (A) (A) (A) (A) (A) (A)
                 (A) (A) (A) (A) (A) (A) (A) (A) (A) (A) (A) (A)
                 (A) (A) (A) (A) (A) (A) (A) (A) (A) (A) (A) (A)
                 (A) (A) (A) (A) (A) (A) (A) (A) (A) (A) (A) (A)
                 (A) (A) (A) (A) (A) (A) (A) (A) (A) (A) (A) (A)
                 (A) (A) (A) (A) (A) (A) (A) (A) (A) (A) (A) (A)
                 (A) (A) (A) (A) (A) (A) (A) (A) (A) (A) (A) (A)
                 (A) (A) (A) (A) (A) (A) (A) (A) (A) (A) (A) (A)
                 (A) (A) (A) (A) (A) (A) (A) (A) (A) (A) (A) (A)
                 (A) (A) (A) (A) (A) (A) (A) (A) (A) (A) (A) (A)
                 (A) (A) (A) (A) (A) (A) (A) (A) (A) (A) (A) (A)
                 (A) (A) (A) (A) (A) (A) (A) (A) (A) (A) (A) (A)
                 (A) (A) (A) (A) (A) (A) (A) (A) (A) (A) (A) (A)
                 (A) (A) (A) (A) (A) (A) (A) (A) (A) (A) (A) (A)
                 (A) (A) (A) (A) (A) (A) (A) (A) (A) (A) (A) (A)
                 (A) (A) (A) (A) (A) (A) (A) (A) (A) (A) (A) (A)
                 (A) (A) (A) (A) (A) (A) (A) (A) (A) (A) (A) (A)
                 (A) (A) (A) (A) (A) (A) (A) (A) (A) (A) (A) (A)
                 (A) (A) (A) (A) (A) (A) (A) (A) (A) (A) (A) (A)
                 (A) (A) (A) (A) (A) (A) (A) (A) (A) (A) (A) (A)
                 (A) (A) (A) (A) (A) (A) (A) (A) (A) (A) (A) (A)
 The electronic state is 1-A.
 Alpha  occ. eigenvalues --  -19.29603 -19.28270 -19.28269 -19.25668 -19.25667
 Alpha  occ. eigenvalues --  -10.35399 -10.35398 -10.35389 -10.35388 -10.33587
 Alpha  occ. eigenvalues --  -10.33586 -10.33423 -10.33423 -10.33185 -10.30246
 Alpha  occ. eigenvalues --  -10.30245 -10.30034 -10.30034 -10.29520 -10.29515
 Alpha  occ. eigenvalues --  -10.29446 -10.29419 -10.29043 -10.29042 -10.29013
 Alpha  occ. eigenvalues --  -10.29013 -10.28916 -10.28916 -10.28893 -10.28891
 Alpha  occ. eigenvalues --  -10.28679 -10.28678 -10.28340 -10.28340  -1.19337
 Alpha  occ. eigenvalues --   -1.15965  -1.15964  -1.13235  -1.13235  -1.01250
 Alpha  occ. eigenvalues --   -0.97753  -0.96779  -0.96202  -0.92392  -0.89096
 Alpha  occ. eigenvalues --   -0.87456  -0.86835  -0.86368  -0.85733  -0.85273
 Alpha  occ. eigenvalues --   -0.84428  -0.83657  -0.80958  -0.78845  -0.74916
 Alpha  occ. eigenvalues --   -0.74151  -0.74147  -0.73139  -0.72247  -0.70010
 Alpha  occ. eigenvalues --   -0.68700  -0.68169  -0.67561  -0.65838  -0.65298
 Alpha  occ. eigenvalues --   -0.63639  -0.63028  -0.61435  -0.60045  -0.59647
 Alpha  occ. eigenvalues --   -0.59427  -0.59422  -0.58968  -0.57618  -0.56802
 Alpha  occ. eigenvalues --   -0.56507  -0.55834  -0.55775  -0.54710  -0.54210
 Alpha  occ. eigenvalues --   -0.53711  -0.52864  -0.52733  -0.52132  -0.52100
 Alpha  occ. eigenvalues --   -0.51720  -0.51299  -0.50894  -0.50273  -0.49865
 Alpha  occ. eigenvalues --   -0.47867  -0.47798  -0.47722  -0.47680  -0.47147
 Alpha  occ. eigenvalues --   -0.46173  -0.46030  -0.45950  -0.44959  -0.44439
 Alpha  occ. eigenvalues --   -0.43751  -0.43076  -0.42991  -0.42630  -0.41842
 Alpha  occ. eigenvalues --   -0.41608  -0.41099  -0.40313  -0.39849  -0.37244
 Alpha  occ. eigenvalues --   -0.37240  -0.35792  -0.34160  -0.34095  -0.33312
 Alpha  occ. eigenvalues --   -0.32936  -0.31862  -0.29161  -0.27849
 Alpha virt. eigenvalues --    0.02632   0.03713   0.03848   0.03953   0.04122
 Alpha virt. eigenvalues --    0.04206   0.04361   0.04505   0.04639   0.05666
 Alpha virt. eigenvalues --    0.05861   0.05941   0.05986   0.06403   0.06426
 Alpha virt. eigenvalues --    0.06747   0.07054   0.07212   0.07328   0.07850
 Alpha virt. eigenvalues --    0.08387   0.08484   0.08581   0.08799   0.09224
 Alpha virt. eigenvalues --    0.09396   0.09738   0.09899   0.11090   0.11248
 Alpha virt. eigenvalues --    0.11422   0.11825   0.12147   0.12431   0.12535
 Alpha virt. eigenvalues --    0.12757   0.13968   0.14095   0.14605   0.14783
 Alpha virt. eigenvalues --    0.14887   0.14958   0.15106   0.15375   0.15400
 Alpha virt. eigenvalues --    0.15640   0.16188   0.16348   0.16553   0.16739
 Alpha virt. eigenvalues --    0.16766   0.17022   0.17204   0.17265   0.17437
 Alpha virt. eigenvalues --    0.17662   0.17820   0.18040   0.18072   0.18499
 Alpha virt. eigenvalues --    0.18541   0.18676   0.18678   0.19075   0.19093
 Alpha virt. eigenvalues --    0.19495   0.19523   0.19692   0.19731   0.19833
 Alpha virt. eigenvalues --    0.20109   0.20796   0.20906   0.21028   0.21096
 Alpha virt. eigenvalues --    0.21111   0.21534   0.21645   0.21657   0.21795
 Alpha virt. eigenvalues --    0.22180   0.22547   0.22901   0.23017   0.23029
 Alpha virt. eigenvalues --    0.23331   0.23981   0.24363   0.24598   0.24634
 Alpha virt. eigenvalues --    0.24842   0.24908   0.25063   0.25160   0.25416
 Alpha virt. eigenvalues --    0.25666   0.25841   0.26187   0.26256   0.26888
 Alpha virt. eigenvalues --    0.27058   0.27302   0.27503   0.27614   0.27813
 Alpha virt. eigenvalues --    0.28200   0.28238   0.28475   0.28568   0.28854
 Alpha virt. eigenvalues --    0.28922   0.29108   0.29341   0.29682   0.29918
 Alpha virt. eigenvalues --    0.30116   0.30174   0.30327   0.30513   0.30730
 Alpha virt. eigenvalues --    0.30862   0.31214   0.31304   0.31789   0.32095
 Alpha virt. eigenvalues --    0.32149   0.32272   0.32543   0.32808   0.32838
 Alpha virt. eigenvalues --    0.33330   0.33796   0.33961   0.33987   0.34109
 Alpha virt. eigenvalues --    0.34365   0.34540   0.34548   0.34959   0.34965
 Alpha virt. eigenvalues --    0.35177   0.35665   0.35717   0.35936   0.36326
 Alpha virt. eigenvalues --    0.36429   0.36761   0.36821   0.36896   0.36997
 Alpha virt. eigenvalues --    0.37592   0.37793   0.37903   0.38048   0.38252
 Alpha virt. eigenvalues --    0.38590   0.38618   0.38726   0.39007   0.39411
 Alpha virt. eigenvalues --    0.39447   0.39825   0.39835   0.40557   0.40609
 Alpha virt. eigenvalues --    0.41066   0.41302   0.41539   0.42194   0.42394
 Alpha virt. eigenvalues --    0.42562   0.42611   0.43225   0.43302   0.43387
 Alpha virt. eigenvalues --    0.43659   0.44255   0.44430   0.44473   0.44571
 Alpha virt. eigenvalues --    0.45461   0.45531   0.45783   0.46254   0.46796
 Alpha virt. eigenvalues --    0.46941   0.47225   0.47238   0.48047   0.48307
 Alpha virt. eigenvalues --    0.48414   0.48858   0.48995   0.49335   0.49426
 Alpha virt. eigenvalues --    0.49753   0.50432   0.50849   0.51678   0.52122
 Alpha virt. eigenvalues --    0.52393   0.52676   0.53561   0.54094   0.55165
 Alpha virt. eigenvalues --    0.55312   0.55447   0.56025   0.57142   0.57464
 Alpha virt. eigenvalues --    0.58023   0.58743   0.59082   0.60348   0.60440
 Alpha virt. eigenvalues --    0.61442   0.61523   0.62073   0.62363   0.62787
 Alpha virt. eigenvalues --    0.63704   0.64047   0.64400   0.64902   0.64909
 Alpha virt. eigenvalues --    0.65180   0.65820   0.65878   0.66768   0.66907
 Alpha virt. eigenvalues --    0.67247   0.67474   0.68107   0.69058   0.69122
 Alpha virt. eigenvalues --    0.69283   0.69600   0.69850   0.69873   0.70517
 Alpha virt. eigenvalues --    0.70662   0.70893   0.71117   0.71647   0.71666
 Alpha virt. eigenvalues --    0.72466   0.72615   0.73809   0.73978   0.74381
 Alpha virt. eigenvalues --    0.75162   0.75302   0.75471   0.75635   0.76266
 Alpha virt. eigenvalues --    0.76462   0.76742   0.77177   0.77201   0.77767
 Alpha virt. eigenvalues --    0.77936   0.78043   0.78061   0.78191   0.78879
 Alpha virt. eigenvalues --    0.80573   0.80637   0.80799   0.81198   0.81580
 Alpha virt. eigenvalues --    0.81923   0.82323   0.82818   0.82957   0.83707
 Alpha virt. eigenvalues --    0.84136   0.84368   0.85061   0.85599   0.85760
 Alpha virt. eigenvalues --    0.86236   0.86439   0.86829   0.87076   0.87377
 Alpha virt. eigenvalues --    0.87720   0.88279   0.88344   0.88766   0.89291
 Alpha virt. eigenvalues --    0.89401   0.90405   0.91161   0.91247   0.91625
 Alpha virt. eigenvalues --    0.92949   0.93051   0.93120   0.93833   0.93931
 Alpha virt. eigenvalues --    0.93944   0.94722   0.94725   0.94978   0.95846
 Alpha virt. eigenvalues --    0.96243   0.96371   0.96930   0.97582   0.97752
 Alpha virt. eigenvalues --    0.97822   0.99083   0.99847   1.00104   1.01554
 Alpha virt. eigenvalues --    1.01604   1.01790   1.02180   1.04379   1.04380
 Alpha virt. eigenvalues --    1.04856   1.05037   1.05763   1.06005   1.06105
 Alpha virt. eigenvalues --    1.06709   1.07683   1.07780   1.08372   1.08694
 Alpha virt. eigenvalues --    1.09045   1.10029   1.10099   1.10378   1.11161
 Alpha virt. eigenvalues --    1.11196   1.11646   1.12542   1.12637   1.13490
 Alpha virt. eigenvalues --    1.13897   1.14042   1.14169   1.14572   1.15185
 Alpha virt. eigenvalues --    1.16670   1.16746   1.17205   1.17382   1.18259
 Alpha virt. eigenvalues --    1.18412   1.18494   1.18674   1.18832   1.19371
 Alpha virt. eigenvalues --    1.19439   1.19724   1.20329   1.20963   1.21075
 Alpha virt. eigenvalues --    1.21800   1.21811   1.22275   1.23323   1.23894
 Alpha virt. eigenvalues --    1.24835   1.25021   1.25197   1.25730   1.27590
 Alpha virt. eigenvalues --    1.28544   1.28740   1.29303   1.30156   1.30990
 Alpha virt. eigenvalues --    1.31779   1.33356   1.33755   1.33976   1.35267
 Alpha virt. eigenvalues --    1.36040   1.36776   1.36843   1.37861   1.38754
 Alpha virt. eigenvalues --    1.40115   1.40211   1.40932   1.41741   1.42057
 Alpha virt. eigenvalues --    1.42642   1.43429   1.44064   1.45826   1.45890
 Alpha virt. eigenvalues --    1.46123   1.47084   1.47701   1.48943   1.49229
 Alpha virt. eigenvalues --    1.49814   1.50582   1.54229   1.55449   1.57276
 Alpha virt. eigenvalues --    1.57334   1.59117   1.59637   1.60225   1.61868
 Alpha virt. eigenvalues --    1.62268   1.62293   1.62849   1.63168   1.63475
 Alpha virt. eigenvalues --    1.63916   1.64103   1.64492   1.65305   1.65505
 Alpha virt. eigenvalues --    1.65555   1.65737   1.66227   1.66357   1.66445
 Alpha virt. eigenvalues --    1.66804   1.68149   1.68332   1.68668   1.68751
 Alpha virt. eigenvalues --    1.69539   1.69691   1.70118   1.71128   1.71243
 Alpha virt. eigenvalues --    1.72140   1.72600   1.73120   1.73408   1.73967
 Alpha virt. eigenvalues --    1.74150   1.74180   1.74413   1.74485   1.75158
 Alpha virt. eigenvalues --    1.76078   1.76774   1.76875   1.77020   1.77385
 Alpha virt. eigenvalues --    1.78792   1.78842   1.79364   1.80772   1.80905
 Alpha virt. eigenvalues --    1.81052   1.81441   1.83397   1.84469   1.84987
 Alpha virt. eigenvalues --    1.85584   1.85861   1.86853   1.87037   1.87486
 Alpha virt. eigenvalues --    1.88311   1.89247   1.89336   1.90756   1.92007
 Alpha virt. eigenvalues --    1.92349   1.92377   1.92828   1.94629   1.94711
 Alpha virt. eigenvalues --    1.95448   1.96304   1.97085   1.97591   1.98756
 Alpha virt. eigenvalues --    1.98785   1.99560   2.00246   2.00783   2.00788
 Alpha virt. eigenvalues --    2.00959   2.01903   2.02086   2.02345   2.02389
 Alpha virt. eigenvalues --    2.04433   2.04877   2.06083   2.06174   2.06272
 Alpha virt. eigenvalues --    2.06499   2.07011   2.07642   2.08098   2.08630
 Alpha virt. eigenvalues --    2.09523   2.09672   2.09923   2.09999   2.10015
 Alpha virt. eigenvalues --    2.10702   2.11498   2.12722   2.13930   2.14522
 Alpha virt. eigenvalues --    2.15040   2.15106   2.15794   2.16257   2.17791
 Alpha virt. eigenvalues --    2.19499   2.19991   2.20021   2.20546   2.21004
 Alpha virt. eigenvalues --    2.22382   2.22407   2.22649   2.23976   2.24297
 Alpha virt. eigenvalues --    2.26039   2.26677   2.27079   2.28944   2.30758
 Alpha virt. eigenvalues --    2.31353   2.32355   2.34747   2.34771   2.35426
 Alpha virt. eigenvalues --    2.36460   2.36717   2.37295   2.37305   2.40371
 Alpha virt. eigenvalues --    2.41400   2.41437   2.43938   2.44345   2.44490
 Alpha virt. eigenvalues --    2.45747   2.46407   2.47513   2.48352   2.48916
 Alpha virt. eigenvalues --    2.50194   2.51135   2.51137   2.52212   2.53685
 Alpha virt. eigenvalues --    2.54312   2.54422   2.57122   2.57371   2.58250
 Alpha virt. eigenvalues --    2.59016   2.60853   2.60958   2.61293   2.61655
 Alpha virt. eigenvalues --    2.63753   2.64213   2.64769   2.67467   2.69819
 Alpha virt. eigenvalues --    2.69837   2.70374   2.70574   2.71196   2.71518
 Alpha virt. eigenvalues --    2.71833   2.72816   2.73492   2.75256   2.75327
 Alpha virt. eigenvalues --    2.75453   2.75752   2.77132   2.79151   2.80409
 Alpha virt. eigenvalues --    2.81269   2.81755   2.82709   2.82836   2.83887
 Alpha virt. eigenvalues --    2.83982   2.84691   2.85014   2.85672   2.85999
 Alpha virt. eigenvalues --    2.87098   2.87707   2.87967   2.88905   2.89221
 Alpha virt. eigenvalues --    2.90389   2.90760   2.91588   2.91660   2.91736
 Alpha virt. eigenvalues --    2.92590   2.93001   2.93049   2.93655   2.94372
 Alpha virt. eigenvalues --    2.94482   2.95744   2.96074   2.96461   2.96700
 Alpha virt. eigenvalues --    2.97770   2.99394   3.00019   3.01040   3.01171
 Alpha virt. eigenvalues --    3.01955   3.02716   3.02784   3.03473   3.03771
 Alpha virt. eigenvalues --    3.04375   3.04578   3.05587   3.06760   3.07018
 Alpha virt. eigenvalues --    3.07830   3.09408   3.11350   3.11354   3.12452
 Alpha virt. eigenvalues --    3.14120   3.14215   3.15134   3.15632   3.16159
 Alpha virt. eigenvalues --    3.17832   3.20078   3.21203   3.21291   3.21379
 Alpha virt. eigenvalues --    3.21795   3.22354   3.22448   3.23014   3.24907
 Alpha virt. eigenvalues --    3.25343   3.26006   3.27797   3.28294   3.32523
 Alpha virt. eigenvalues --    3.32603   3.32810   3.32942   3.33334   3.34128
 Alpha virt. eigenvalues --    3.34963   3.37257   3.37793   3.38446   3.38770
 Alpha virt. eigenvalues --    3.39823   3.40663   3.43323   3.45840   3.48593
 Alpha virt. eigenvalues --    3.49190   3.49952   3.51707   3.55199   3.55468
 Alpha virt. eigenvalues --    3.55628   3.56662   3.59709   3.59717   3.59819
 Alpha virt. eigenvalues --    3.63704   3.70618   3.71800   3.72195   3.72765
 Alpha virt. eigenvalues --    3.73603   3.76902   3.80076   3.81388   3.81602
 Alpha virt. eigenvalues --    3.82039   3.86222   3.89064   3.91060   3.94185
 Alpha virt. eigenvalues --    3.96123   3.96129   3.97097   3.97131   3.98267
 Alpha virt. eigenvalues --    3.98382   4.02258   4.08904   4.08932   4.11190
 Alpha virt. eigenvalues --    4.17143   4.17272   4.17646   4.17881   4.20132
 Alpha virt. eigenvalues --    4.21877   4.21899   4.23036   4.27389   4.27482
 Alpha virt. eigenvalues --    4.32122   4.33529   4.34430   4.35351   4.36939
 Alpha virt. eigenvalues --    4.37808   4.37813   4.40737   4.47678   4.55385
 Alpha virt. eigenvalues --    4.62250   4.71823   4.97183   4.98690   4.99465
 Alpha virt. eigenvalues --    5.00972   5.15139   5.15168   5.17114   5.17141
 Alpha virt. eigenvalues --    5.19213   5.47770   5.47866   5.53496   5.55610
 Alpha virt. eigenvalues --    5.55893   5.76131   5.76349   5.84945   5.85972
 Alpha virt. eigenvalues --    6.06330  23.73184  23.77923  23.80004  23.83750
 Alpha virt. eigenvalues --   23.99264  23.99448  24.04914  24.07381  24.07403
 Alpha virt. eigenvalues --   24.09808  24.11042  24.11685  24.12572  24.14576
 Alpha virt. eigenvalues --   24.15268  24.16507  24.17908  24.23386  24.24551
 Alpha virt. eigenvalues --   24.27398  24.28056  24.28099  24.28553  24.30481
 Alpha virt. eigenvalues --   24.31607  24.36084  24.37528  24.37735  24.38617
 Alpha virt. eigenvalues --   50.05348  50.05365  50.11038  50.11726  50.17524
          Condensed to atoms (all electrons):
 Mulliken charges:
               1
     1  C    0.106472
     2  C   -0.266790
     3  C    0.049350
     4  C    0.936894
     5  C   -0.883770
     6  C   -0.645627
     7  H    0.253940
     8  H    0.195220
     9  H    0.266658
    10  C    0.046956
    11  C    0.937031
    12  C   -0.265271
    13  C   -0.882110
    14  C    0.107598
    15  H    0.195312
    16  C   -0.643857
    17  H    0.266707
    18  H    0.253947
    19  C    1.149073
    20  C    0.398715
    21  C    0.103417
    22  C   -0.701832
    23  C   -0.296892
    24  C   -0.518903
    25  H    0.200399
    26  C   -0.346823
    27  H    0.234680
    28  H    0.215128
    29  H    0.207911
    30  C    0.398489
    31  C   -0.701904
    32  C    0.103346
    33  C   -0.518808
    34  H    0.200378
    35  C   -0.296912
    36  C   -0.346824
    37  H    0.215128
    38  H    0.234675
    39  H    0.207912
    40  O   -0.152820
    41  O   -0.103524
    42  O   -0.103669
    43  C   -0.389626
    44  H    0.189612
    45  H    0.189276
    46  C   -0.244982
    47  H    0.183063
    48  H    0.183093
    49  C   -0.389349
    50  H    0.189270
    51  H    0.189635
    52  C   -0.244872
    53  H    0.183086
    54  H    0.183055
    55  O   -0.279800
    56  H    0.264668
    57  O   -0.279799
    58  H    0.264669
 Sum of Mulliken charges =  -0.00000
 Mulliken charges with hydrogens summed into heavy atoms:
               1
     1  C    0.360412
     2  C   -0.071571
     3  C    0.049350
     4  C    0.936894
     5  C   -0.617112
     6  C   -0.645627
    10  C    0.046956
    11  C    0.937031
    12  C   -0.069959
    13  C   -0.615403
    14  C    0.361546
    16  C   -0.643857
    19  C    1.149073
    20  C    0.398715
    21  C    0.103417
    22  C   -0.501433
    23  C   -0.062213
    24  C   -0.303775
    26  C   -0.138912
    30  C    0.398489
    31  C   -0.501527
    32  C    0.103346
    33  C   -0.303680
    35  C   -0.062237
    36  C   -0.138913
    40  O   -0.152820
    41  O   -0.103524
    42  O   -0.103669
    43  C   -0.010738
    46  C    0.121174
    49  C   -0.010443
    52  C    0.121269
    55  O   -0.015132
    57  O   -0.015130
 Electronic spatial extent (au):  <R**2>=          18270.2474
 Charge=             -0.0000 electrons
 Dipole moment (field-independent basis, Debye):
    X=              0.0020    Y=             -0.3335    Z=              0.0004  Tot=              0.3335
 Quadrupole moment (field-independent basis, Debye-Ang):
   XX=           -159.1347   YY=           -194.7212   ZZ=           -188.4891
   XY=             -0.0035   XZ=              0.0002   YZ=              0.0009
 Traceless Quadrupole moment (field-independent basis, Debye-Ang):
   XX=             21.6470   YY=            -13.9395   ZZ=             -7.7075
   XY=             -0.0035   XZ=              0.0002   YZ=              0.0009
 Octapole moment (field-independent basis, Debye-Ang**2):
  XXX=              0.0268  YYY=             29.6791  ZZZ=              0.0088  XYY=             -0.0589
  XXY=            -16.3047  XXZ=              0.0369  XZZ=              0.0297  YZZ=             29.8594
  YYZ=             -0.0054  XYZ=              0.1521
 Hexadecapole moment (field-independent basis, Debye-Ang**3):
 XXXX=          -8933.1325 YYYY=          -5672.3720 ZZZZ=          -2904.2779 XXXY=              1.1555
 XXXZ=             -1.1219 YYYX=             -0.4760 YYYZ=              0.0224 ZZZX=              0.3257
 ZZZY=             -0.0123 XXYY=          -3980.1913 XXZZ=          -3113.0818 YYZZ=          -1387.4890
 XXYZ=             -0.0574 YYXZ=             -0.3634 ZZXY=             -0.1164
 N-N= 3.372181231603D+03 E-N=-1.023144535450D+04  KE= 1.490140714419D+03
 Calling FoFJK, ICntrl=      2127 FMM=F ISym2X=0 I1Cent= 0 IOpClX= 0 NMat=1 NMatS=1 NMatT=0.
 ***** Axes restored to original set *****
 -------------------------------------------------------------------
 Center     Atomic                   Forces (Hartrees/Bohr)
 Number     Number              X              Y              Z
 -------------------------------------------------------------------
      1        6          -0.004546001    0.000001730    0.006967071
      2        6           0.008592963    0.000002109    0.000588491
      3        6          -0.002877004    0.000004458    0.012413437
      4        6          -0.000758512    0.000008619    0.002423583
      5        6           0.004491782    0.000005879   -0.003130761
      6        6           0.004913361    0.000014112   -0.035217069
      7        1          -0.005995945    0.000003431    0.004911422
      8        1          -0.008455758    0.000000366    0.001921311
      9        1           0.008305574   -0.000001453   -0.004866514
     10        6          -0.002840486   -0.000006024   -0.012418127
     11        6          -0.000770588   -0.000002976   -0.002429514
     12        6           0.008593152   -0.000002604   -0.000556548
     13        6           0.004474004   -0.000004476    0.003144478
     14        6          -0.004546696   -0.000003693   -0.006987872
     15        1          -0.008453668    0.000000064   -0.001933720
     16        6           0.004880983   -0.000012929    0.035222872
     17        1           0.008298255    0.000000492    0.004882085
     18        1          -0.005988063   -0.000004039   -0.004917998
     19        6          -0.000752892   -0.000004999   -0.000001238
     20        6          -0.007975995   -0.007766470   -0.000008671
     21        6           0.004087303   -0.017947731    0.000005475
     22        6           0.004437075   -0.001924376   -0.000006588
     23        6          -0.000902766   -0.003148350   -0.000005626
     24        6           0.002544311   -0.001382399   -0.000001667
     25        1          -0.010066809    0.000715211    0.000006417
     26        6          -0.004181721   -0.001137735    0.000003301
     27        1           0.010039607   -0.000203263   -0.000005907
     28        1          -0.003997612    0.007918229    0.000007157
     29        1           0.005091869    0.007207066    0.000000153
     30        6          -0.007988740    0.007761151    0.000002968
     31        6           0.004440117    0.001938481   -0.000006730
     32        6           0.004109978    0.017941462   -0.000003311
     33        6           0.002555753    0.001373970   -0.000001155
     34        1          -0.010067229   -0.000714147    0.000005738
     35        6          -0.000910409    0.003153219   -0.000006268
     36        6          -0.004192462    0.001134120    0.000003114
     37        1          -0.003998535   -0.007916689    0.000007249
     38        1           0.010041169    0.000200276   -0.000005695
     39        1           0.005091914   -0.007207154    0.000001034
     40        8           0.000717271    0.000007582   -0.000000797
     41        8          -0.017357517   -0.000055872    0.035245971
     42        8          -0.017307945    0.000055491   -0.035271105
     43        6           0.024384255    0.000015079   -0.030084468
     44        1          -0.009374611   -0.013748811   -0.000227891
     45        1          -0.009405741    0.013726012   -0.000288271
     46        6          -0.015281793    0.000000329    0.007623335
     47        1           0.011543226    0.013565876   -0.001922157
     48        1           0.011570877   -0.013545132   -0.001896986
     49        6           0.024338915   -0.000012094    0.030119864
     50        1          -0.009407420   -0.013725324    0.000277921
     51        1          -0.009374462    0.013749485    0.000209048
     52        6          -0.015270967   -0.000002020   -0.007645668
     53        1           0.011568678    0.013544919    0.001911625
     54        1           0.011539792   -0.013566043    0.001941659
     55        8          -0.000569113    0.000009330    0.009104276
     56        1           0.001756946    0.000003421    0.004567530
     57        8          -0.000555302   -0.000010989   -0.009105408
     58        1           0.001763627   -0.000004177   -0.004564859
 -------------------------------------------------------------------
 Cartesian Forces:  Max     0.035271105 RMS     0.009195522

 GradGradGradGradGradGradGradGradGradGradGradGradGradGradGradGradGradGrad
 Berny optimization.
 FormGI is forming the generalized inverse of G from B-inverse, IUseBI=4.
 Internal  Forces:  Max     0.077339027 RMS     0.009124211
 Search for a local minimum.
 Step number   1 out of a maximum of  342
 All quantities printed in internal units (Hartrees-Bohrs-Radians)
 Mixed Optimization -- RFO/linear search
 Second derivative matrix not updated -- first step.
 ITU=  0
     Eigenvalues ---    0.00237   0.00237   0.00621   0.00732   0.01295
     Eigenvalues ---    0.01295   0.01295   0.01295   0.01295   0.01295
     Eigenvalues ---    0.01296   0.01390   0.01543   0.01557   0.01722
     Eigenvalues ---    0.01808   0.01878   0.02001   0.02097   0.02106
     Eigenvalues ---    0.02110   0.02229   0.02236   0.02265   0.02266
     Eigenvalues ---    0.02268   0.02268   0.02272   0.02272   0.02284
     Eigenvalues ---    0.02289   0.02300   0.02300   0.02308   0.02308
     Eigenvalues ---    0.02315   0.02316   0.02327   0.02327   0.02333
     Eigenvalues ---    0.02334   0.02346   0.02346   0.02368   0.02369
     Eigenvalues ---    0.04973   0.05139   0.05139   0.05139   0.05139
     Eigenvalues ---    0.05816   0.05816   0.05816   0.05816   0.06657
     Eigenvalues ---    0.10873   0.11239   0.11239   0.11239   0.11239
     Eigenvalues ---    0.12337   0.13704   0.13704   0.13704   0.13704
     Eigenvalues ---    0.16000   0.16000   0.16000   0.16000   0.16000
     Eigenvalues ---    0.16000   0.16000   0.16000   0.16000   0.16000
     Eigenvalues ---    0.16000   0.16000   0.16000   0.16000   0.16000
     Eigenvalues ---    0.16000   0.20955   0.22000   0.22000   0.22071
     Eigenvalues ---    0.22071   0.22071   0.22071   0.22449   0.22473
     Eigenvalues ---    0.22606   0.22618   0.23532   0.23545   0.24491
     Eigenvalues ---    0.24546   0.24614   0.24692   0.25000   0.25000
     Eigenvalues ---    0.25000   0.25000   0.25000   0.25000   0.25000
     Eigenvalues ---    0.28087   0.28519   0.28519   0.28566   0.29080
     Eigenvalues ---    0.29383   0.33686   0.36964   0.36964   0.36987
     Eigenvalues ---    0.36987   0.37015   0.37015   0.37038   0.37038
     Eigenvalues ---    0.37086   0.37086   0.37095   0.37095   0.37230
     Eigenvalues ---    0.37230   0.37230   0.37230   0.37230   0.37230
     Eigenvalues ---    0.37230   0.37230   0.37289   0.37289   0.39734
     Eigenvalues ---    0.40989   0.40989   0.40989   0.40989   0.40989
     Eigenvalues ---    0.40989   0.41091   0.42630   0.43325   0.43589
     Eigenvalues ---    0.43621   0.43886   0.43923   0.46387   0.46609
     Eigenvalues ---    0.46856   0.47068   0.47289   0.47293   0.47851
     Eigenvalues ---    0.47853   0.48378   0.48382   0.48711   0.48970
     Eigenvalues ---    0.48971   0.49144   0.49304   0.49309   0.49788
     Eigenvalues ---    0.49912   0.55473   0.55473
 RFO step:  Lambda=-7.92158603D-02 EMin= 2.36824227D-03
 Linear search not attempted -- first point.
 Maximum step size (   0.300) exceeded in Quadratic search.
    -- Step size scaled by   0.625
 Iteration  1 RMS(Cart)=  0.17002653 RMS(Int)=  0.00867420
 Iteration  2 RMS(Cart)=  0.11579485 RMS(Int)=  0.00239048
 Iteration  3 RMS(Cart)=  0.00608553 RMS(Int)=  0.00005733
 Iteration  4 RMS(Cart)=  0.00000612 RMS(Int)=  0.00005727
 Iteration  5 RMS(Cart)=  0.00000000 RMS(Int)=  0.00005727
 Variable       Old X    -DE/DX   Delta X   Delta X   Delta X     New X
                                 (Linear)    (Quad)   (Total)
    R1        2.61928   0.00720   0.00000   0.00844   0.00844   2.62772
    R2        2.62070   0.01706   0.00000   0.01974   0.01975   2.64044
    R3        2.02566   0.00119   0.00000   0.00166   0.00166   2.02732
    R4        2.61197   0.00210   0.00000   0.00206   0.00206   2.61403
    R5        2.02601   0.00863   0.00000   0.01202   0.01202   2.03802
    R6        2.63174   0.00252   0.00000   0.00230   0.00230   2.63404
    R7        2.79151  -0.00480   0.00000  -0.00668  -0.00668   2.78483
    R8        2.60055   0.00274   0.00000   0.00258   0.00258   2.60313
    R9        2.90013  -0.00317   0.00000  -0.00566  -0.00566   2.89447
   R10        2.62266   0.00326   0.00000   0.00392   0.00393   2.62659
   R11        2.02524   0.00942   0.00000   0.01310   0.01310   2.03833
   R12        2.70231  -0.02223   0.00000  -0.02840  -0.02840   2.67391
   R13        2.63177   0.00251   0.00000   0.00229   0.00229   2.63406
   R14        2.61195   0.00210   0.00000   0.00207   0.00207   2.61401
   R15        2.60052   0.00275   0.00000   0.00259   0.00259   2.60312
   R16        2.90002  -0.00315   0.00000  -0.00563  -0.00563   2.89439
   R17        2.61932   0.00718   0.00000   0.00842   0.00842   2.62774
   R18        2.02601   0.00863   0.00000   0.01202   0.01202   2.03802
   R19        2.62269   0.00326   0.00000   0.00391   0.00392   2.62661
   R20        2.02523   0.00942   0.00000   0.01310   0.01310   2.03833
   R21        2.62067   0.01706   0.00000   0.01975   0.01975   2.64042
   R22        2.02566   0.00119   0.00000   0.00166   0.00166   2.02732
   R23        2.70231  -0.02223   0.00000  -0.02840  -0.02840   2.67390
   R24        2.88666  -0.00537   0.00000  -0.00797  -0.00797   2.87868
   R25        2.88667  -0.00537   0.00000  -0.00797  -0.00797   2.87870
   R26        2.60288   0.00962   0.00000   0.01059   0.01059   2.61346
   R27        2.63115   0.00496   0.00000   0.00573   0.00573   2.63689
   R28        2.62184   0.00576   0.00000   0.00657   0.00657   2.62841
   R29        2.60608  -0.00988   0.00000  -0.01146  -0.01146   2.59462
   R30        2.60059   0.00672   0.00000   0.00718   0.00718   2.60778
   R31        2.02404   0.01009   0.00000   0.01401   0.01401   2.03805
   R32        2.59656   0.00799   0.00000   0.00851   0.00851   2.60507
   R33        2.02113   0.01001   0.00000   0.01383   0.01383   2.03496
   R34        2.62830   0.00504   0.00000   0.00554   0.00554   2.63384
   R35        2.02416   0.00887   0.00000   0.01231   0.01231   2.03648
   R36        2.02488   0.00882   0.00000   0.01226   0.01226   2.03714
   R37        2.63119   0.00495   0.00000   0.00572   0.00572   2.63691
   R38        2.60284   0.00963   0.00000   0.01060   0.01060   2.61343
   R39        2.60057   0.00673   0.00000   0.00719   0.00719   2.60776
   R40        2.02404   0.01009   0.00000   0.01401   0.01401   2.03804
   R41        2.62187   0.00576   0.00000   0.00656   0.00656   2.62843
   R42        2.60607  -0.00987   0.00000  -0.01145  -0.01145   2.59462
   R43        2.62833   0.00503   0.00000   0.00553   0.00553   2.63386
   R44        2.02417   0.00887   0.00000   0.01231   0.01231   2.03648
   R45        2.59654   0.00799   0.00000   0.00852   0.00852   2.60506
   R46        2.02113   0.01001   0.00000   0.01383   0.01383   2.03496
   R47        2.02488   0.00882   0.00000   0.01226   0.01226   2.03714
   R48        2.70231  -0.00587   0.00000  -0.00750  -0.00750   2.69481
   R49        2.70231  -0.00587   0.00000  -0.00750  -0.00750   2.69481
   R50        2.02201   0.01611   0.00000   0.02230   0.02230   2.04430
   R51        2.02201   0.01610   0.00000   0.02229   0.02229   2.04429
   R52        2.91018  -0.01538   0.00000  -0.02638  -0.02638   2.88380
   R53        2.02201   0.01761   0.00000   0.02437   0.02437   2.04638
   R54        2.02201   0.01761   0.00000   0.02437   0.02437   2.04638
   R55        2.70231  -0.00800   0.00000  -0.01023  -0.01023   2.69208
   R56        2.02201   0.01610   0.00000   0.02229   0.02229   2.04429
   R57        2.02201   0.01611   0.00000   0.02230   0.02230   2.04430
   R58        2.91018  -0.01538   0.00000  -0.02638  -0.02638   2.88380
   R59        2.02201   0.01761   0.00000   0.02437   0.02437   2.04638
   R60        2.02201   0.01761   0.00000   0.02437   0.02437   2.04638
   R61        2.70231  -0.00800   0.00000  -0.01023  -0.01023   2.69208
   R62        1.81414  -0.00414   0.00000  -0.00408  -0.00408   1.81006
   R63        1.81414  -0.00414   0.00000  -0.00408  -0.00408   1.81006
    A1        2.10514  -0.00191   0.00000  -0.00240  -0.00240   2.10274
    A2        2.08947  -0.00680   0.00000  -0.01906  -0.01906   2.07041
    A3        2.08858   0.00871   0.00000   0.02146   0.02146   2.11004
    A4        2.07188   0.00347   0.00000   0.00716   0.00715   2.07903
    A5        2.10103  -0.00257   0.00000  -0.00577  -0.00576   2.09527
    A6        2.11027  -0.00090   0.00000  -0.00139  -0.00139   2.10888
    A7        2.10462  -0.00318   0.00000  -0.00748  -0.00749   2.09714
    A8        2.28251   0.00367   0.00000   0.00827   0.00828   2.29079
    A9        1.89606  -0.00050   0.00000  -0.00079  -0.00079   1.89526
   A10        2.10649   0.00411   0.00000   0.00647   0.00647   2.11296
   A11        1.93550   0.00071   0.00000   0.00092   0.00092   1.93642
   A12        2.24120  -0.00483   0.00000  -0.00739  -0.00739   2.23381
   A13        2.07402   0.00238   0.00000   0.00434   0.00434   2.07836
   A14        2.10384   0.00082   0.00000   0.00309   0.00309   2.10693
   A15        2.10532  -0.00321   0.00000  -0.00743  -0.00743   2.09789
   A16        2.10422  -0.00488   0.00000  -0.00809  -0.00808   2.09615
   A17        2.08943   0.04330   0.00000   0.08159   0.08159   2.17101
   A18        2.08954  -0.03842   0.00000  -0.07351  -0.07351   2.01603
   A19        1.89604  -0.00050   0.00000  -0.00079  -0.00079   1.89525
   A20        2.28253   0.00367   0.00000   0.00827   0.00827   2.29080
   A21        2.10462  -0.00317   0.00000  -0.00747  -0.00748   2.09714
   A22        2.10650   0.00411   0.00000   0.00646   0.00646   2.11296
   A23        1.93553   0.00071   0.00000   0.00091   0.00092   1.93644
   A24        2.24116  -0.00482   0.00000  -0.00737  -0.00737   2.23378
   A25        2.07187   0.00347   0.00000   0.00716   0.00716   2.07903
   A26        2.11028  -0.00090   0.00000  -0.00139  -0.00139   2.10889
   A27        2.10103  -0.00257   0.00000  -0.00577  -0.00577   2.09527
   A28        2.07401   0.00238   0.00000   0.00434   0.00435   2.07836
   A29        2.10381   0.00083   0.00000   0.00310   0.00310   2.10691
[...]
 Alpha  occ. eigenvalues --   -0.51527  -0.51134  -0.50867  -0.50512  -0.50118
 Alpha  occ. eigenvalues --   -0.47713  -0.47380  -0.47323  -0.47212  -0.46742
 Alpha  occ. eigenvalues --   -0.46033  -0.45675  -0.45587  -0.44736  -0.44109
 Alpha  occ. eigenvalues --   -0.43617  -0.43228  -0.43070  -0.42510  -0.41963
 Alpha  occ. eigenvalues --   -0.41852  -0.41040  -0.40039  -0.40006  -0.37384
 Alpha  occ. eigenvalues --   -0.37383  -0.35402  -0.33841  -0.33387  -0.32667
 Alpha  occ. eigenvalues --   -0.32578  -0.31379  -0.28850  -0.26811
 Alpha virt. eigenvalues --    0.02972   0.03749   0.03920   0.03959   0.04341
 Alpha virt. eigenvalues --    0.04366   0.04530   0.04541   0.04691   0.05607
 Alpha virt. eigenvalues --    0.05741   0.06072   0.06094   0.06429   0.06469
 Alpha virt. eigenvalues --    0.06759   0.07187   0.07196   0.07270   0.07518
 Alpha virt. eigenvalues --    0.08509   0.08583   0.08981   0.09033   0.09340
 Alpha virt. eigenvalues --    0.09353   0.09754   0.10031   0.10762   0.11097
 Alpha virt. eigenvalues --    0.11196   0.11565   0.12433   0.12665   0.12935
 Alpha virt. eigenvalues --    0.13070   0.13418   0.13954   0.14756   0.14864
 Alpha virt. eigenvalues --    0.14881   0.15034   0.15404   0.15435   0.15498
 Alpha virt. eigenvalues --    0.15920   0.16227   0.16248   0.16257   0.16327
 Alpha virt. eigenvalues --    0.16833   0.17024   0.17101   0.17248   0.17458
 Alpha virt. eigenvalues --    0.17561   0.17869   0.17889   0.18010   0.18189
 Alpha virt. eigenvalues --    0.18537   0.18647   0.18787   0.18824   0.19317
 Alpha virt. eigenvalues --    0.19548   0.19708   0.19745   0.19752   0.19879
 Alpha virt. eigenvalues --    0.20007   0.20412   0.20828   0.20951   0.20985
 Alpha virt. eigenvalues --    0.21089   0.21610   0.21769   0.21885   0.21981
 Alpha virt. eigenvalues --    0.22210   0.22674   0.22831   0.23021   0.23140
 Alpha virt. eigenvalues --    0.23367   0.23503   0.23666   0.24407   0.24615
 Alpha virt. eigenvalues --    0.24934   0.25129   0.25450   0.25665   0.25835
 Alpha virt. eigenvalues --    0.26049   0.26096   0.26212   0.26264   0.26684
 Alpha virt. eigenvalues --    0.26858   0.27074   0.27285   0.27646   0.27725
 Alpha virt. eigenvalues --    0.27728   0.27958   0.28379   0.28511   0.28658
 Alpha virt. eigenvalues --    0.28894   0.29328   0.29459   0.29797   0.29939
 Alpha virt. eigenvalues --    0.30118   0.30121   0.30155   0.30374   0.30419
 Alpha virt. eigenvalues --    0.31242   0.31365   0.31397   0.31654   0.32416
 Alpha virt. eigenvalues --    0.32509   0.32717   0.32820   0.33083   0.33214
 Alpha virt. eigenvalues --    0.33265   0.33492   0.33691   0.33983   0.34444
 Alpha virt. eigenvalues --    0.34532   0.34559   0.34683   0.34687   0.34747
 Alpha virt. eigenvalues --    0.35121   0.35624   0.35834   0.36247   0.36313
 Alpha virt. eigenvalues --    0.36490   0.36562   0.36662   0.37025   0.37322
 Alpha virt. eigenvalues --    0.37475   0.37595   0.37746   0.37849   0.38196
 Alpha virt. eigenvalues --    0.38403   0.38765   0.38772   0.38905   0.38935
 Alpha virt. eigenvalues --    0.39144   0.39626   0.39837   0.40138   0.40860
 Alpha virt. eigenvalues --    0.40997   0.41697   0.41806   0.42110   0.42169
 Alpha virt. eigenvalues --    0.42659   0.42705   0.42739   0.43462   0.43662
 Alpha virt. eigenvalues --    0.43685   0.43696   0.44523   0.44580   0.44660
 Alpha virt. eigenvalues --    0.45333   0.45609   0.46227   0.46243   0.46481
 Alpha virt. eigenvalues --    0.46569   0.47123   0.47374   0.47415   0.48042
 Alpha virt. eigenvalues --    0.48591   0.48715   0.49302   0.49465   0.49543
 Alpha virt. eigenvalues --    0.50043   0.50816   0.51079   0.51809   0.52330
 Alpha virt. eigenvalues --    0.52632   0.53485   0.54002   0.54090   0.54997
 Alpha virt. eigenvalues --    0.55319   0.55456   0.55564   0.55686   0.57703
 Alpha virt. eigenvalues --    0.58146   0.58589   0.59449   0.60085   0.60468
 Alpha virt. eigenvalues --    0.60585   0.61393   0.61762   0.62478   0.63123
 Alpha virt. eigenvalues --    0.63464   0.63474   0.64381   0.64894   0.65014
 Alpha virt. eigenvalues --    0.65109   0.65663   0.65856   0.66654   0.67364
 Alpha virt. eigenvalues --    0.67440   0.67777   0.67980   0.69035   0.69397
 Alpha virt. eigenvalues --    0.69500   0.69609   0.69752   0.69822   0.70360
 Alpha virt. eigenvalues --    0.71006   0.71041   0.71654   0.72294   0.72582
 Alpha virt. eigenvalues --    0.73243   0.73314   0.73907   0.74048   0.74517
 Alpha virt. eigenvalues --    0.74837   0.74921   0.75005   0.75706   0.75927
 Alpha virt. eigenvalues --    0.76270   0.76827   0.76961   0.76998   0.77250
 Alpha virt. eigenvalues --    0.77616   0.77626   0.78300   0.78352   0.78709
 Alpha virt. eigenvalues --    0.79985   0.80321   0.80576   0.80956   0.81320
 Alpha virt. eigenvalues --    0.81467   0.81810   0.81917   0.82746   0.83268
 Alpha virt. eigenvalues --    0.83687   0.83746   0.84139   0.84996   0.85671
 Alpha virt. eigenvalues --    0.85799   0.86052   0.86795   0.87117   0.87273
 Alpha virt. eigenvalues --    0.87772   0.87905   0.88108   0.88346   0.88890
 Alpha virt. eigenvalues --    0.89507   0.90374   0.90976   0.91185   0.91286
 Alpha virt. eigenvalues --    0.91431   0.91843   0.92848   0.92882   0.93833
 Alpha virt. eigenvalues --    0.93981   0.94533   0.94703   0.94785   0.95045
 Alpha virt. eigenvalues --    0.96295   0.96309   0.96637   0.97631   0.98001
 Alpha virt. eigenvalues --    0.98016   0.99163   1.00007   1.00441   1.01233
 Alpha virt. eigenvalues --    1.01599   1.01890   1.02258   1.03797   1.04534
 Alpha virt. eigenvalues --    1.04746   1.05562   1.05862   1.05941   1.06341
 Alpha virt. eigenvalues --    1.06946   1.07157   1.08122   1.08814   1.08841
 Alpha virt. eigenvalues --    1.09107   1.09561   1.10142   1.10253   1.10678
 Alpha virt. eigenvalues --    1.11419   1.11521   1.12179   1.12790   1.13494
 Alpha virt. eigenvalues --    1.13552   1.14316   1.14580   1.14601   1.15107
 Alpha virt. eigenvalues --    1.15872   1.16665   1.17294   1.17519   1.17563
 Alpha virt. eigenvalues --    1.18402   1.18520   1.18884   1.19082   1.19607
 Alpha virt. eigenvalues --    1.19791   1.20091   1.20305   1.20506   1.21284
 Alpha virt. eigenvalues --    1.21575   1.22139   1.22527   1.22985   1.23844
 Alpha virt. eigenvalues --    1.24396   1.24626   1.24778   1.25858   1.27873
 Alpha virt. eigenvalues --    1.28304   1.28730   1.29296   1.31419   1.31846
 Alpha virt. eigenvalues --    1.32381   1.32510   1.33398   1.33527   1.35397
 Alpha virt. eigenvalues --    1.36428   1.36808   1.37357   1.37692   1.39225
 Alpha virt. eigenvalues --    1.39928   1.40346   1.41304   1.41498   1.42142
 Alpha virt. eigenvalues --    1.43298   1.44635   1.44859   1.45311   1.45333
 Alpha virt. eigenvalues --    1.46192   1.47559   1.48819   1.49048   1.49684
 Alpha virt. eigenvalues --    1.50734   1.51609   1.54268   1.55738   1.57059
 Alpha virt. eigenvalues --    1.57222   1.57871   1.60159   1.60356   1.61118
 Alpha virt. eigenvalues --    1.61780   1.62235   1.62554   1.62953   1.63621
 Alpha virt. eigenvalues --    1.63687   1.64160   1.64363   1.64594   1.64961
 Alpha virt. eigenvalues --    1.65465   1.65952   1.66064   1.66218   1.66558
 Alpha virt. eigenvalues --    1.66714   1.67823   1.68002   1.68149   1.68574
 Alpha virt. eigenvalues --    1.69240   1.69875   1.69993   1.71290   1.71691
 Alpha virt. eigenvalues --    1.72313   1.72967   1.73201   1.73238   1.73520
 Alpha virt. eigenvalues --    1.74083   1.74224   1.74631   1.75131   1.75491
 Alpha virt. eigenvalues --    1.75684   1.75757   1.76299   1.77038   1.77405
 Alpha virt. eigenvalues --    1.78545   1.78829   1.79173   1.80454   1.80487
 Alpha virt. eigenvalues --    1.81040   1.81990   1.83132   1.83882   1.84555
 Alpha virt. eigenvalues --    1.85747   1.86153   1.86539   1.87627   1.88536
 Alpha virt. eigenvalues --    1.88588   1.89645   1.89797   1.89925   1.90021
 Alpha virt. eigenvalues --    1.90862   1.91173   1.91766   1.92120   1.93473
 Alpha virt. eigenvalues --    1.95060   1.95714   1.96670   1.97634   1.98094
 Alpha virt. eigenvalues --    1.98124   1.98300   1.99633   1.99959   2.00171
 Alpha virt. eigenvalues --    2.00403   2.00759   2.01664   2.01679   2.02455
 Alpha virt. eigenvalues --    2.03898   2.04761   2.05089   2.05612   2.05687
 Alpha virt. eigenvalues --    2.06683   2.06885   2.07022   2.07831   2.08652
 Alpha virt. eigenvalues --    2.09039   2.09499   2.09801   2.10073   2.10403
 Alpha virt. eigenvalues --    2.10805   2.12820   2.13544   2.13648   2.13816
 Alpha virt. eigenvalues --    2.13938   2.14821   2.16016   2.16368   2.18618
 Alpha virt. eigenvalues --    2.19532   2.19715   2.20214   2.20315   2.21711
 Alpha virt. eigenvalues --    2.21795   2.22148   2.22824   2.22870   2.24076
 Alpha virt. eigenvalues --    2.24434   2.25803   2.26313   2.29296   2.29561
 Alpha virt. eigenvalues --    2.30377   2.31000   2.34173   2.34394   2.35024
 Alpha virt. eigenvalues --    2.35419   2.35864   2.36425   2.36683   2.39748
 Alpha virt. eigenvalues --    2.40514   2.41039   2.42120   2.43541   2.43574
 Alpha virt. eigenvalues --    2.44275   2.44460   2.46101   2.46328   2.47189
 Alpha virt. eigenvalues --    2.48579   2.50256   2.50530   2.51474   2.53009
 Alpha virt. eigenvalues --    2.54095   2.54707   2.55576   2.55615   2.56708
 Alpha virt. eigenvalues --    2.58044   2.58277   2.58606   2.59748   2.59756
 Alpha virt. eigenvalues --    2.61979   2.62580   2.63621   2.63841   2.64771
 Alpha virt. eigenvalues --    2.65090   2.66855   2.66885   2.68878   2.69374
 Alpha virt. eigenvalues --    2.70503   2.71044   2.72177   2.72813   2.73993
 Alpha virt. eigenvalues --    2.75742   2.76213   2.76285   2.78275   2.79420
 Alpha virt. eigenvalues --    2.80644   2.80855   2.82848   2.83396   2.84235
 Alpha virt. eigenvalues --    2.84456   2.84845   2.85552   2.85708   2.86255
 Alpha virt. eigenvalues --    2.87045   2.87149   2.87730   2.88315   2.88435
 Alpha virt. eigenvalues --    2.88641   2.88904   2.91086   2.91225   2.91448
 Alpha virt. eigenvalues --    2.91615   2.92826   2.92958   2.93500   2.93886
 Alpha virt. eigenvalues --    2.94178   2.95505   2.95689   2.96332   2.97255
 Alpha virt. eigenvalues --    2.97416   2.99592   3.00098   3.00370   3.01058
 Alpha virt. eigenvalues --    3.01128   3.02675   3.02781   3.03366   3.04195
 Alpha virt. eigenvalues --    3.04754   3.05561   3.06668   3.07240   3.08663
 Alpha virt. eigenvalues --    3.08886   3.10467   3.11486   3.11933   3.14394
 Alpha virt. eigenvalues --    3.15382   3.15480   3.15713   3.16507   3.17851
 Alpha virt. eigenvalues --    3.19012   3.20811   3.20942   3.21166   3.21224
 Alpha virt. eigenvalues --    3.22038   3.22852   3.23131   3.23707   3.26070
 Alpha virt. eigenvalues --    3.27674   3.27971   3.28210   3.28395   3.32194
 Alpha virt. eigenvalues --    3.33628   3.33742   3.35481   3.36530   3.37004
 Alpha virt. eigenvalues --    3.37049   3.37245   3.37301   3.38024   3.38675
 Alpha virt. eigenvalues --    3.41082   3.43819   3.44459   3.45112   3.47910
 Alpha virt. eigenvalues --    3.49243   3.50808   3.51081   3.54382   3.55139
 Alpha virt. eigenvalues --    3.55470   3.56663   3.57141   3.58513   3.60799
 Alpha virt. eigenvalues --    3.62745   3.68796   3.69604   3.70499   3.71174
 Alpha virt. eigenvalues --    3.72373   3.75161   3.78682   3.79201   3.79675
 Alpha virt. eigenvalues --    3.81357   3.85068   3.87731   3.88650   3.88700
 Alpha virt. eigenvalues --    3.89615   3.91960   3.91973   3.93879   3.97406
 Alpha virt. eigenvalues --    3.97664   4.02988   4.08985   4.09529   4.10470
 Alpha virt. eigenvalues --    4.15295   4.15669   4.18602   4.19241   4.19458
 Alpha virt. eigenvalues --    4.19807   4.20721   4.23911   4.28117   4.30679
 Alpha virt. eigenvalues --    4.30996   4.32006   4.34935   4.35551   4.38004
 Alpha virt. eigenvalues --    4.40243   4.40533   4.41613   4.49487   4.57328
 Alpha virt. eigenvalues --    4.62778   4.72958   4.96192   4.97542   4.98547
 Alpha virt. eigenvalues --    5.00115   5.14756   5.14790   5.17037   5.17173
 Alpha virt. eigenvalues --    5.19100   5.49229   5.49456   5.54526   5.55736
 Alpha virt. eigenvalues --    5.57419   5.79073   5.79129   5.96421   5.98101
 Alpha virt. eigenvalues --    6.07031  23.73988  23.78243  23.80002  23.85275
 Alpha virt. eigenvalues --   23.97423  23.97570  24.02747  24.02917  24.05693
 Alpha virt. eigenvalues --   24.09106  24.09699  24.10290  24.11661  24.13064
 Alpha virt. eigenvalues --   24.13396  24.14816  24.16251  24.21855  24.22037
 Alpha virt. eigenvalues --   24.24680  24.25400  24.25654  24.26779  24.28468
 Alpha virt. eigenvalues --   24.30149  24.34104  24.34668  24.35440  24.36509
 Alpha virt. eigenvalues --   50.05648  50.05650  50.12493  50.13198  50.17713
          Condensed to atoms (all electrons):
 Mulliken charges:
               1
     1  C   -0.024532
     2  C   -0.228133
     3  C    0.007364
     4  C    0.914590
     5  C   -0.931768
     6  C   -0.529568
     7  H    0.224811
     8  H    0.200561
     9  H    0.267610
    10  C    0.004819
    11  C    0.914114
    12  C   -0.226932
    13  C   -0.929342
    14  C   -0.024257
    15  H    0.200680
    16  C   -0.527349
    17  H    0.267606
    18  H    0.224758
    19  C    1.122414
    20  C    0.370418
    21  C    0.129871
    22  C   -0.679585
    23  C   -0.292407
    24  C   -0.526176
    25  H    0.207752
    26  C   -0.345042
    27  H    0.236121
    28  H    0.216186
    29  H    0.208192
    30  C    0.370418
    31  C   -0.679582
    32  C    0.129867
    33  C   -0.526177
    34  H    0.207753
    35  C   -0.292408
    36  C   -0.345041
    37  H    0.216186
    38  H    0.236121
    39  H    0.208192
    40  O   -0.120858
    41  O   -0.080437
    42  O   -0.080623
    43  C   -0.392467
    44  H    0.186108
    45  H    0.186103
    46  C   -0.187825
    47  H    0.180032
    48  H    0.180031
    49  C   -0.392199
    50  H    0.186126
    51  H    0.186131
    52  C   -0.187773
    53  H    0.180028
    54  H    0.180028
    55  O   -0.265098
    56  H    0.264844
    57  O   -0.265097
    58  H    0.264841
 Sum of Mulliken charges =  -0.00000
 Mulliken charges with hydrogens summed into heavy atoms:
               1
     1  C    0.200279
     2  C   -0.027572
     3  C    0.007364
     4  C    0.914590
     5  C   -0.664158
     6  C   -0.529568
    10  C    0.004819
    11  C    0.914114
    12  C   -0.026252
    13  C   -0.661736
    14  C    0.200501
    16  C   -0.527349
    19  C    1.122414
    20  C    0.370418
    21  C    0.129871
    22  C   -0.471833
    23  C   -0.056287
    24  C   -0.309990
    26  C   -0.136849
    30  C    0.370418
    31  C   -0.471829
    32  C    0.129867
    33  C   -0.309991
    35  C   -0.056287
    36  C   -0.136849
    40  O   -0.120858
    41  O   -0.080437
    42  O   -0.080623
    43  C   -0.020257
    46  C    0.172238
    49  C   -0.019942
    52  C    0.172282
    55  O   -0.000253
    57  O   -0.000256
 Electronic spatial extent (au):  <R**2>=          18109.8166
 Charge=             -0.0000 electrons
 Dipole moment (field-independent basis, Debye):
    X=              0.0019    Y=              0.2650    Z=              0.0000  Tot=              0.2650
 Quadrupole moment (field-independent basis, Debye-Ang):
   XX=           -158.5541   YY=           -192.4499   ZZ=           -189.8917
   XY=             -0.0065   XZ=             -0.0022   YZ=              0.0002
 Traceless Quadrupole moment (field-independent basis, Debye-Ang):
   XX=             21.7445   YY=            -12.1513   ZZ=             -9.5931
   XY=             -0.0065   XZ=             -0.0022   YZ=              0.0002
 Octapole moment (field-independent basis, Debye-Ang**2):
  XXX=              0.0030  YYY=              4.4081  ZZZ=              0.0012  XYY=             -0.0327
  XXY=             84.7243  XXZ=              0.0026  XZZ=              0.0289  YZZ=             29.4786
  YYZ=             -0.0014  XYZ=              0.0419
 Hexadecapole moment (field-independent basis, Debye-Ang**3):
 XXXX=         -10066.5841 YYYY=          -4910.6904 ZZZZ=          -2915.4084 XXXY=              1.2448
 XXXZ=             -0.4394 YYYX=             -0.5839 YYYZ=              0.0017 ZZZX=              0.0957
 ZZZY=             -0.0014 XXYY=          -4004.4696 XXZZ=          -3191.2247 YYZZ=          -1303.3808
 XXYZ=              0.0081 YYXZ=             -0.0732 ZZXY=             -0.1445
 N-N= 3.377784284213D+03 E-N=-1.024255542019D+04  KE= 1.489704827647D+03
 Unable to Open any file for archive entry.
 1\1\GINC-SKKUPSL\FOpt\RwB97XD\6-311++G(d,p)\C29H24O5\PSL\23-Oct-2025\0
 \\# opt wb97xd/6-311++g(d,p) geom=connectivity\\Title Card Required\\0
 ,1\C,-3.1887543164,-0.0007089676,-3.0233259598\C,-3.4859974012,-0.0002
 319467,-1.6611589293\C,-2.4559298432,0.0000092478,-0.7356103164\C,-1.1
 282036422,-0.0002250004,-1.1803254802\C,-0.8163992313,-0.0007041559,-2
 .5205107835\C,-1.8595315197,-0.000954795,-3.4511144003\H,-3.9998548209
 ,-0.0008644165,-3.7393231132\H,-4.5227975219,-0.0000482847,-1.34216108
 51\H,0.2093822405,-0.0009020876,-2.8716713308\C,-2.4570454804,0.000491
 0361,0.7326762192\C,-1.1299982519,0.0005481907,1.1794139531\C,-3.48852
 76489,0.000869818,1.6566538391\C,-0.8202489945,0.0009867333,2.52007920
 76\C,-3.1933660146,0.0013073513,3.0192717342\H,-4.5248381669,0.0008249
 415,1.3360706273\C,-1.8647973649,0.0013765896,3.44909225\H,0.204996540
 3,0.0010485481,2.8727944651\H,-4.0055654485,0.0015699418,3.7340215137\
 C,-0.1571798072,0.0000974825,0.0003056178\C,0.7070459503,1.2506163142,
 0.0004319399\C,2.0933440958,1.1788312418,-0.0005870759\C,0.116857716,2
 .5171339816,0.0011944516\C,2.8781575527,2.3316882352,-0.000872348\C,0.
 8802808506,3.6698729126,0.0009187199\H,-0.9664019337,2.5837688189,0.00
 20062142\C,2.2717498555,3.5732515504,-0.0001388194\H,3.9561227424,2.22
 39979098,-0.0016533222\H,0.3985016161,4.6402900972,0.0015154028\H,2.88
 23752376,4.4688693379,-0.0003586372\C,0.7068814305,-1.2505347072,0.001
 2520349\C,0.11652686,-2.5169742838,0.0028449956\C,2.0931886343,-1.1789
 323171,0.0001832035\C,0.8797987637,-3.6698130236,0.0033208458\H,-0.966
 7415463,-2.5834662337,0.003705437\C,2.877851206,-2.3318922095,0.000648
 6199\C,2.2712807668,-3.5733749886,0.0021955808\H,0.3978925392,-4.64016
 65584,0.0045556161\H,3.9558304253,-2.2243431359,-0.0002050157\H,2.8817
 880643,-4.4690732098,0.0025614743\O,2.7823906906,-0.0000961842,-0.0014
 050817\O,-1.4801986761,-0.0013702223,-4.755005002\O,-1.4874546433,0.00
 1738888,4.7535614034\C,-2.4788373717,-0.0022838146,-5.7535244588\H,-3.
 112970136,-0.8931824755,-5.672726464\H,-3.1130705342,0.8886870087,-5.6
 742981628\C,-1.7622589429,-0.0033965269,-7.0882545881\H,-1.1246344402,
 0.8862807534,-7.1566659259\H,-1.1245886908,-0.893155367,-7.1551635226\
 C,-2.4876137345,0.0028398516,5.7505594135\H,-3.1218546628,-0.888042862
 ,5.670407361\H,-3.1214947189,0.893825949,5.6687560979\C,-1.773073824,0
 .003907506,7.0863816266\H,-1.1353808524,0.8935789685,7.1542283668\H,-1
 .1356807425,-0.8858571233,7.1558051181\O,-2.7667824597,-0.0042751118,-
 8.0853581845\H,-2.3507340152,-0.0046620262,-8.9467854379\O,-2.77912218
 61,0.00497084,8.0819457537\H,-2.3643948825,0.0053113306,8.944009851\\V
 ersion=ES64L-G16RevC.01\State=1-A\HF=-1495.5371214\RMSD=3.052e-09\RMSF
 =3.705e-05\Dipole=0.1042662,0.0000014,0.0008524\Quadrupole=-9.0341972,
 -7.1322428,16.16644,0.0002821,-0.0279294,0.0103064\PG=C01 [X(C29H24O5)
 ]\\@
 The archive entry for this job was punched.


 A MAN IS EXACTLY AS GREAT AS THE TIDE SURGING
 BENEATH HIM.      - BISMARCK
 Job cpu time:       0 days 18 hours 10 minutes 11.8 seconds.
 Elapsed time:       0 days 18 hours 19 minutes 45.9 seconds.
 File lengths (MBytes):  RWF=    496 Int=      0 D2E=      0 Chk=     61 Scr=      1
 Normal termination of Gaussian 16 at Thu Oct 23 17:12:52 2025.
