 Entering Gaussian System, Link 0=g16
 Initial command:
 /home/psl/g16/l1.exe "/home/psl/g16/scratch/Gau-354770.inp" -scrdir="/home/psl/g16/scratch/"
 Entering Link 1 = /home/psl/g16/l1.exe PID=    354772.
  
 Copyright (c) 1988-2019, Gaussian, Inc.  All Rights Reserved.
  
 This is part of the Gaussian(R) 16 program.  It is based on
 the Gaussian(R) 09 system (copyright 2009, Gaussian, Inc.),
 the Gaussian(R) 03 system (copyright 2003, Gaussian, Inc.),
 the Gaussian(R) 98 system (copyright 1998, Gaussian, Inc.),
 the Gaussian(R) 94 system (copyright 1995, Gaussian, Inc.),
 the Gaussian 92(TM) system (copyright 1992, Gaussian, Inc.),
 the Gaussian 90(TM) system (copyright 1990, Gaussian, Inc.),
 the Gaussian 88(TM) system (copyright 1988, Gaussian, Inc.),
 the Gaussian 86(TM) system (copyright 1986, Carnegie Mellon
 University), and the Gaussian 82(TM) system (copyright 1983,
 Carnegie Mellon University). Gaussian is a federally registered
 trademark of Gaussian, Inc.
  
 This software contains proprietary and confidential information,
 including trade secrets, belonging to Gaussian, Inc.
  
 This software is provided under written license and may be
 used, copied, transmitted, or stored only in accord with that
 written license.
  
 The following legend is applicable only to US Government
 contracts under FAR:
  
                    RESTRICTED RIGHTS LEGEND
  
 Use, reproduction and disclosure by the US Government is
 subject to restrictions as set forth in subparagraphs (a)
 and (c) of the Commercial Computer Software - Restricted
 Rights clause in FAR 52.227-19.
  
 Gaussian, Inc.
 340 Quinnipiac St., Bldg. 40, Wallingford CT 06492
  
  
 ---------------------------------------------------------------
 Warning -- This program may not be used in any manner that
 competes with the business of Gaussian, Inc. or will provide
 assistance to any competitor of Gaussian, Inc.  The licensee
 of this program is prohibited from giving any competitor of
 Gaussian, Inc. access to this program.  By using this program,
 the user acknowledges that Gaussian, Inc. is engaged in the
 business of creating and licensing software in the field of
 computational chemistry and represents and warrants to the
 licensee that it is not a competitor of Gaussian, Inc. and that
 it will not use this program in any manner prohibited above.
 ---------------------------------------------------------------
  

 Cite this work as:
 Gaussian 16, Revision C.01,
 M. J. Frisch, G. W. Trucks, H. B. Schlegel, G. E. Scuseria, 
 M. A. Robb, J. R. Cheeseman, G. Scalmani, V. Barone, 
 G. A. Petersson, H. Nakatsuji, X. Li, M. Caricato, A. V. Marenich, 
 J. Bloino, B. G. Janesko, R. Gomperts, B. Mennucci, H. P. Hratchian, 
 J. V. Ortiz, A. F. Izmaylov, J. L. Sonnenberg, D. Williams-Young, 
 F. Ding, F. Lipparini, F. Egidi, J. Goings, B. Peng, A. Petrone, 
 T. Henderson, D. Ranasinghe, V. G. Zakrzewski, J. Gao, N. Rega, 
 G. Zheng, W. Liang, M. Hada, M. Ehara, K. Toyota, R. Fukuda, 
 J. Hasegawa, M. Ishida, T. Nakajima, Y. Honda, O. Kitao, H. Nakai, 
 T. Vreven, K. Throssell, J. A. Montgomery, Jr., J. E. Peralta, 
 F. Ogliaro, M. J. Bearpark, J. J. Heyd, E. N. Brothers, K. N. Kudin, 
 V. N. Staroverov, T. A. Keith, R. Kobayashi, J. Normand, 
 K. Raghavachari, A. P. Rendell, J. C. Burant, S. S. Iyengar, 
 J. Tomasi, M. Cossi, J. M. Millam, M. Klene, C. Adamo, R. Cammi, 
 J. W. Ochterski, R. L. Martin, K. Morokuma, O. Farkas, 
 J. B. Foresman, and D. J. Fox, Gaussian, Inc., Wallingford CT, 2019.
 
 ******************************************
 Gaussian 16:  ES64L-G16RevC.01  3-Jul-2019
                23-Oct-2025 
 ******************************************
 %nprocshared=1
 Will use up to    1 processors via shared memory.
 %mem=4GB
 %chk=PC-FX_OPT_WB97XD_6-311++GDP_G_251023.chk
 --------------------------------------------
 # opt wb97xd/6-311++g(d,p) geom=connectivity
 --------------------------------------------
 1/18=20,19=15,26=3,38=1,57=2/1,3;
 2/9=110,12=2,17=6,18=5,40=1/2;
 3/5=4,6=6,7=1111,11=2,25=1,30=1,71=1,74=-58/1,2,3;
 4//1;
 5/5=2,38=5/2;
 6/7=2,8=2,9=2,10=2,28=1/1;
 7//1,2,3,16;
 1/18=20,19=15,26=3/3(2);
 2/9=110/2;
 99//99;
 2/9=110/2;
 3/5=4,6=6,7=1111,11=2,25=1,30=1,71=1,74=-58/1,2,3;
 4/5=5,16=3,69=1/1;
 5/5=2,38=5/2;
 7//1,2,3,16;
 1/18=20,19=15,26=3/3(-5);
 2/9=110/2;
 6/7=2,8=2,9=2,10=2,19=2,28=1/1;
 99/9=1/99;
 -------------------
 Title Card Required
 -------------------
 Symbolic Z-matrix:
 Charge =  0 Multiplicity = 1
 C                    -2.52362  -2.22955  -0.0001 
 C                    -1.16287  -2.56437  -0.00002 
 C                    -0.20329  -1.55357   0.00001 
 C                    -0.61278  -0.20086  -0.00003 
 C                    -1.95249   0.14317  -0.00011 
 C                    -2.90885  -0.88372  -0.00014 
 H                    -3.26253  -3.01664  -0.00013 
 H                    -0.87333  -3.60732   0.00002 
 H                    -2.28957   1.1699   -0.00014 
 C                     1.26486  -1.60322   0.00009 
 C                     1.76575  -0.28137   0.0001 
 C                     2.15372  -2.67774   0.00017 
 C                     3.1267   -0.03176   0.00016 
 C                     3.53379  -2.43745   0.00024 
 H                     1.79323  -3.6983    0.00017 
 C                     4.01237  -1.12093   0.00023 
 H                     3.53141   0.97006   0.00016 
 H                     4.21745  -3.27288   0.00031 
 C                     0.61562   0.74246   0.00001 
 C                     0.62225   1.61409   1.26405 
 C                     0.29511   2.97122   1.20767 
 C                     0.89718   1.06736   2.52816 
 C                     0.23031   3.76747   2.35338 
 C                     0.83705   1.844     3.68285 
 H                     1.1565    0.02012   2.59779 
 C                     0.49847   3.20058   3.59481 
 H                    -0.02579   4.81099   2.24265 
 H                     1.05049   1.39732   4.64416 
 H                     0.44929   3.81062   4.48648 
 C                     0.62239   1.61404  -1.26406 
 C                     0.89745   1.06726  -2.52812 
 C                     0.29524   2.97117  -1.20777 
 C                     0.83745   1.84385  -3.68285 
 H                     1.15677   0.02002  -2.59768 
 C                     0.23056   3.76738  -2.35351 
 C                     0.49885   3.20044  -3.5949 
 H                     1.05099   1.39714  -4.64411 
 H                    -0.02555   4.8109   -2.24285 
 H                     0.44977   3.81044  -4.48659 
 O                     0.00819   3.62357  -0.00008 
 O                    -4.23872  -0.4531   -0.00022 
 O                     5.36615  -0.78371   0.00032 
 C                    -5.31045  -1.43434  -0.00014 
 H                    -5.25676  -2.0656   -0.88986 
 H                    -5.2567   -2.06551   0.88963 
 C                    -6.58983  -0.62356  -0.00016 
 H                    -6.66578   0.00454   0.88479 
 H                    -6.66569   0.00455  -0.88511 
 C                     6.37028  -1.8377    0.00017 
 H                     6.27286  -2.46279  -0.88978 
 H                     6.27309  -2.46284   0.89011 
 C                     7.71263  -1.13431   0.00002 
 H                     7.80776  -0.50274   0.88932 
 H                     7.80761  -0.5028   -0.88933 
 O                    -7.67756  -1.61727  -0.00023 
 O                     8.71358  -2.18236  -0.00002 
 C                    -8.97506  -1.13916   0.00006 
 C                     10.0772  -1.69255  -0.00025 
 H                     10.28306  -1.09172   0.8919 
 H                     10.71624  -2.57072  -0.00026 
 H                     10.28282  -1.09188  -0.89257 
 C                    -9.96528  -2.26367  -0.00001 
 H                    -10.97246  -1.85881   0.00029 
 H                    -9.82137  -2.8932   -0.87854 
 H                    -9.82102  -2.89362   0.87817 
 O                    -9.23502   0.06321   0.00033 
 

 GradGradGradGradGradGradGradGradGradGradGradGradGradGradGradGradGradGrad
 Berny optimization.
 Initialization pass.
                           ----------------------------
                           !    Initial Parameters    !
                           ! (Angstroms and Degrees)  !
 --------------------------                            --------------------------
 ! Name  Definition              Value          Derivative Info.                !
 --------------------------------------------------------------------------------
 ! R1    R(1,2)                  1.4013         estimate D2E/DX2                !
 ! R2    R(1,6)                  1.3999         estimate D2E/DX2                !
 ! R3    R(1,7)                  1.0796         estimate D2E/DX2                !
 ! R4    R(2,3)                  1.3937         estimate D2E/DX2                !
 ! R5    R(2,8)                  1.0824         estimate D2E/DX2                !
 ! R6    R(3,4)                  1.4133         estimate D2E/DX2                !
 ! R7    R(3,10)                 1.469          estimate D2E/DX2                !
 ! R8    R(4,5)                  1.3832         estimate D2E/DX2                !
 ! R9    R(4,19)                 1.5488         estimate D2E/DX2                !
 ! R10   R(5,6)                  1.4033         estimate D2E/DX2                !
 ! R11   R(5,9)                  1.0806         estimate D2E/DX2                !
 ! R12   R(6,41)                 1.3978         estimate D2E/DX2                !
 ! R13   R(10,11)                1.4136         estimate D2E/DX2                !
 ! R14   R(10,12)                1.3945         estimate D2E/DX2                !
 ! R15   R(11,13)                1.3837         estimate D2E/DX2                !
 ! R16   R(11,19)                1.5398         estimate D2E/DX2                !
 ! R17   R(12,14)                1.4008         estimate D2E/DX2                !
 ! R18   R(12,15)                1.0824         estimate D2E/DX2                !
 ! R19   R(13,16)                1.4038         estimate D2E/DX2                !
 ! R20   R(13,17)                1.0805         estimate D2E/DX2                !
 ! R21   R(14,16)                1.4008         estimate D2E/DX2                !
 ! R22   R(14,18)                1.0795         estimate D2E/DX2                !
 ! R23   R(16,42)                1.3951         estimate D2E/DX2                !
 ! R24   R(19,20)                1.5354         estimate D2E/DX2                !
 ! R25   R(19,30)                1.5354         estimate D2E/DX2                !
 ! R26   R(20,21)                1.3971         estimate D2E/DX2                !
 ! R27   R(20,22)                1.4044         estimate D2E/DX2                !
 ! R28   R(21,23)                1.3967         estimate D2E/DX2                !
 ! R29   R(21,40)                1.4023         estimate D2E/DX2                !
 ! R30   R(22,24)                1.3929         estimate D2E/DX2                !
 ! R31   R(22,25)                1.0811         estimate D2E/DX2                !
 ! R32   R(23,26)                1.3908         estimate D2E/DX2                !
 ! R33   R(23,27)                1.0802         estimate D2E/DX2                !
 ! R34   R(24,26)                1.401          estimate D2E/DX2                !
 ! R35   R(24,28)                1.0813         estimate D2E/DX2                !
 ! R36   R(26,29)                1.0815         estimate D2E/DX2                !
 ! R37   R(30,31)                1.4044         estimate D2E/DX2                !
 ! R38   R(30,32)                1.3971         estimate D2E/DX2                !
 ! R39   R(31,33)                1.3929         estimate D2E/DX2                !
 ! R40   R(31,34)                1.0811         estimate D2E/DX2                !
 ! R41   R(32,35)                1.3967         estimate D2E/DX2                !
 ! R42   R(32,40)                1.4023         estimate D2E/DX2                !
 ! R43   R(33,36)                1.401          estimate D2E/DX2                !
 ! R44   R(33,37)                1.0813         estimate D2E/DX2                !
 ! R45   R(35,36)                1.3908         estimate D2E/DX2                !
 ! R46   R(35,38)                1.0802         estimate D2E/DX2                !
 ! R47   R(36,39)                1.0815         estimate D2E/DX2                !
 ! R48   R(41,43)                1.4531         estimate D2E/DX2                !
 ! R49   R(42,49)                1.4557         estimate D2E/DX2                !
 ! R50   R(43,44)                1.0922         estimate D2E/DX2                !
 ! R51   R(43,45)                1.0922         estimate D2E/DX2                !
 ! R52   R(43,46)                1.5147         estimate D2E/DX2                !
 ! R53   R(46,47)                1.0878         estimate D2E/DX2                !
 ! R54   R(46,48)                1.0878         estimate D2E/DX2                !
 ! R55   R(46,55)                1.4733         estimate D2E/DX2                !
 ! R56   R(49,50)                1.0919         estimate D2E/DX2                !
 ! R57   R(49,51)                1.0919         estimate D2E/DX2                !
 ! R58   R(49,52)                1.5155         estimate D2E/DX2                !
 ! R59   R(52,53)                1.0949         estimate D2E/DX2                !
 ! R60   R(52,54)                1.0949         estimate D2E/DX2                !
 ! R61   R(52,56)                1.4492         estimate D2E/DX2                !
 ! R62   R(55,57)                1.3828         estimate D2E/DX2                !
 ! R63   R(56,58)                1.4489         estimate D2E/DX2                !
 ! R64   R(57,62)                1.4983         estimate D2E/DX2                !
 ! R65   R(57,66)                1.2302         estimate D2E/DX2                !
 ! R66   R(58,59)                1.0951         estimate D2E/DX2                !
 ! R67   R(58,60)                1.0861         estimate D2E/DX2                !
 ! R68   R(58,61)                1.0951         estimate D2E/DX2                !
 ! R69   R(62,63)                1.0855         estimate D2E/DX2                !
 ! R70   R(62,64)                1.0903         estimate D2E/DX2                !
 ! R71   R(62,65)                1.0903         estimate D2E/DX2                !
 ! A1    A(2,1,6)              119.7967         estimate D2E/DX2                !
 ! A2    A(2,1,7)              119.3686         estimate D2E/DX2                !
 ! A3    A(6,1,7)              120.8347         estimate D2E/DX2                !
 ! A4    A(1,2,3)              119.688          estimate D2E/DX2                !
 ! A5    A(1,2,8)              119.3386         estimate D2E/DX2                !
 ! A6    A(3,2,8)              120.9734         estimate D2E/DX2                !
 ! A7    A(2,3,4)              119.6468         estimate D2E/DX2                !
 ! A8    A(2,3,10)             131.5745         estimate D2E/DX2                !
 ! A9    A(4,3,10)             108.7787         estimate D2E/DX2                !
 ! A10   A(3,4,5)              121.2439         estimate D2E/DX2                !
 ! A11   A(3,4,19)             110.6793         estimate D2E/DX2                !
 ! A12   A(5,4,19)             128.0768         estimate D2E/DX2                !
 ! A13   A(4,5,6)              118.5615         estimate D2E/DX2                !
 ! A14   A(4,5,9)              122.577          estimate D2E/DX2                !
 ! A15   A(6,5,9)              118.8615         estimate D2E/DX2                !
 ! A16   A(1,6,5)              121.0631         estimate D2E/DX2                !
 ! A17   A(1,6,41)             123.9158         estimate D2E/DX2                !
 ! A18   A(5,6,41)             115.0211         estimate D2E/DX2                !
 ! A19   A(3,10,11)            108.8164         estimate D2E/DX2                !
 ! A20   A(3,10,12)            131.5347         estimate D2E/DX2                !
 ! A21   A(11,10,12)           119.6488         estimate D2E/DX2                !
 ! A22   A(10,11,13)           121.1462         estimate D2E/DX2                !
 ! A23   A(10,11,19)           110.9219         estimate D2E/DX2                !
 ! A24   A(13,11,19)           127.9319         estimate D2E/DX2                !
 ! A25   A(10,12,14)           119.7211         estimate D2E/DX2                !
 ! A26   A(10,12,15)           120.9473         estimate D2E/DX2                !
 ! A27   A(14,12,15)           119.3316         estimate D2E/DX2                !
 ! A28   A(11,13,16)           118.7237         estimate D2E/DX2                !
 ! A29   A(11,13,17)           122.3902         estimate D2E/DX2                !
 ! A30   A(16,13,17)           118.8861         estimate D2E/DX2                !
 ! A31   A(12,14,16)           119.8542         estimate D2E/DX2                !
 ! A32   A(12,14,18)           119.4176         estimate D2E/DX2                !
 ! A33   A(16,14,18)           120.7282         estimate D2E/DX2                !
 ! A34   A(13,16,14)           120.906          estimate D2E/DX2                !
 ! A35   A(13,16,42)           115.1294         estimate D2E/DX2                !
 ! A36   A(14,16,42)           123.9646         estimate D2E/DX2                !
 ! A37   A(4,19,11)            100.8037         estimate D2E/DX2                !
 ! A38   A(4,19,20)            110.4382         estimate D2E/DX2                !
 ! A39   A(4,19,30)            110.4382         estimate D2E/DX2                !
 ! A40   A(11,19,20)           111.9737         estimate D2E/DX2                !
 ! A41   A(11,19,30)           111.9739         estimate D2E/DX2                !
 ! A42   A(20,19,30)           110.8232         estimate D2E/DX2                !
 ! A43   A(19,20,21)           121.144          estimate D2E/DX2                !
 ! A44   A(19,20,22)           121.3884         estimate D2E/DX2                !
 ! A45   A(21,20,22)           117.406          estimate D2E/DX2                !
 ! A46   A(20,21,23)           122.1083         estimate D2E/DX2                !
 ! A47   A(20,21,40)           122.312          estimate D2E/DX2                !
 ! A48   A(23,21,40)           115.5796         estimate D2E/DX2                !
 ! A49   A(20,22,24)           121.3765         estimate D2E/DX2                !
 ! A50   A(20,22,25)           118.8167         estimate D2E/DX2                !
 ! A51   A(24,22,25)           119.8065         estimate D2E/DX2                !
 ! A52   A(21,23,26)           119.3969         estimate D2E/DX2                !
 ! A53   A(21,23,27)           118.5322         estimate D2E/DX2                !
 ! A54   A(26,23,27)           122.0707         estimate D2E/DX2                !
 ! A55   A(22,24,26)           119.8843         estimate D2E/DX2                !
 ! A56   A(22,24,28)           119.8783         estimate D2E/DX2                !
 ! A57   A(26,24,28)           120.2373         estimate D2E/DX2                !
 ! A58   A(23,26,24)           119.8257         estimate D2E/DX2                !
 ! A59   A(23,26,29)           119.8173         estimate D2E/DX2                !
 ! A60   A(24,26,29)           120.3563         estimate D2E/DX2                !
 ! A61   A(19,30,31)           121.3885         estimate D2E/DX2                !
 ! A62   A(19,30,32)           121.1439         estimate D2E/DX2                !
 ! A63   A(31,30,32)           117.4059         estimate D2E/DX2                !
 ! A64   A(30,31,33)           121.3765         estimate D2E/DX2                !
 ! A65   A(30,31,34)           118.8166         estimate D2E/DX2                !
 ! A66   A(33,31,34)           119.8064         estimate D2E/DX2                !
 ! A67   A(30,32,35)           122.1083         estimate D2E/DX2                !
 ! A68   A(30,32,40)           122.312          estimate D2E/DX2                !
 ! A69   A(35,32,40)           115.5796         estimate D2E/DX2                !
 ! A70   A(31,33,36)           119.8843         estimate D2E/DX2                !
 ! A71   A(31,33,37)           119.8784         estimate D2E/DX2                !
 ! A72   A(36,33,37)           120.2373         estimate D2E/DX2                !
 ! A73   A(32,35,36)           119.397          estimate D2E/DX2                !
 ! A74   A(32,35,38)           118.5321         estimate D2E/DX2                !
 ! A75   A(36,35,38)           122.0707         estimate D2E/DX2                !
 ! A76   A(33,36,35)           119.8256         estimate D2E/DX2                !
 ! A77   A(33,36,39)           120.3563         estimate D2E/DX2                !
 ! A78   A(35,36,39)           119.8174         estimate D2E/DX2                !
 ! A79   A(21,40,32)           118.9077         estimate D2E/DX2                !
 ! A80   A(6,41,43)            119.5816         estimate D2E/DX2                !
 ! A81   A(16,42,49)           119.6251         estimate D2E/DX2                !
 ! A82   A(41,43,44)           110.7312         estimate D2E/DX2                !
 ! A83   A(41,43,45)           110.7306         estimate D2E/DX2                !
 ! A84   A(41,43,46)           105.1602         estimate D2E/DX2                !
 ! A85   A(44,43,45)           109.0985         estimate D2E/DX2                !
 ! A86   A(44,43,46)           110.5413         estimate D2E/DX2                !
 ! A87   A(45,43,46)           110.543          estimate D2E/DX2                !
 ! A88   A(43,46,47)           111.594          estimate D2E/DX2                !
 ! A89   A(43,46,48)           111.5913         estimate D2E/DX2                !
 ! A90   A(43,46,55)           105.2225         estimate D2E/DX2                !
 ! A91   A(47,46,48)           108.8756         estimate D2E/DX2                !
 ! A92   A(47,46,55)           109.7502         estimate D2E/DX2                !
 ! A93   A(48,46,55)           109.7504         estimate D2E/DX2                !
 ! A94   A(42,49,50)           110.6729         estimate D2E/DX2                !
 ! A95   A(42,49,51)           110.673          estimate D2E/DX2                !
 ! A96   A(42,49,52)           105.9578         estimate D2E/DX2                !
 ! A97   A(50,49,51)           109.1835         estimate D2E/DX2                !
 ! A98   A(50,49,52)           110.1616         estimate D2E/DX2                !
 ! A99   A(51,49,52)           110.1606         estimate D2E/DX2                !
 ! A100  A(49,52,53)           110.1585         estimate D2E/DX2                !
 ! A101  A(49,52,54)           110.159          estimate D2E/DX2                !
 ! A102  A(49,52,56)           106.0288         estimate D2E/DX2                !
 ! A103  A(53,52,54)           108.6334         estimate D2E/DX2                !
 ! A104  A(53,52,56)           110.926          estimate D2E/DX2                !
 ! A105  A(54,52,56)           110.926          estimate D2E/DX2                !
 ! A106  A(46,55,57)           117.3581         estimate D2E/DX2                !
 ! A107  A(52,56,58)           113.9252         estimate D2E/DX2                !
 ! A108  A(55,57,62)           111.1388         estimate D2E/DX2                !
 ! A109  A(55,57,66)           122.428          estimate D2E/DX2                !
 ! A110  A(62,57,66)           126.4332         estimate D2E/DX2                !
 ! A111  A(56,58,59)           111.2385         estimate D2E/DX2                !
 ! A112  A(56,58,60)           106.2844         estimate D2E/DX2                !
 ! A113  A(56,58,61)           111.2383         estimate D2E/DX2                !
 ! A114  A(59,58,60)           109.4521         estimate D2E/DX2                !
 ! A115  A(59,58,61)           109.1213         estimate D2E/DX2                !
 ! A116  A(60,58,61)           109.4522         estimate D2E/DX2                !
 ! A117  A(57,62,63)           109.4681         estimate D2E/DX2                !
 ! A118  A(57,62,64)           110.2501         estimate D2E/DX2                !
 ! A119  A(57,62,65)           110.2506         estimate D2E/DX2                !
 ! A120  A(63,62,64)           109.7564         estimate D2E/DX2                !
 ! A121  A(63,62,65)           109.757          estimate D2E/DX2                !
 ! A122  A(64,62,65)           107.3323         estimate D2E/DX2                !
 ! D1    D(6,1,2,3)             -0.0001         estimate D2E/DX2                !
 ! D2    D(6,1,2,8)            180.0            estimate D2E/DX2                !
 ! D3    D(7,1,2,3)            179.9997         estimate D2E/DX2                !
 ! D4    D(7,1,2,8)             -0.0003         estimate D2E/DX2                !
 ! D5    D(2,1,6,5)              0.0001         estimate D2E/DX2                !
 ! D6    D(2,1,6,41)           179.9997         estimate D2E/DX2                !
 ! D7    D(7,1,6,5)           -179.9996         estimate D2E/DX2                !
 ! D8    D(7,1,6,41)             0.0            estimate D2E/DX2                !
 ! D9    D(1,2,3,4)             -0.0001         estimate D2E/DX2                !
 ! D10   D(1,2,3,10)           179.9999         estimate D2E/DX2                !
 ! D11   D(8,2,3,4)            179.9999         estimate D2E/DX2                !
 ! D12   D(8,2,3,10)            -0.0001         estimate D2E/DX2                !
 ! D13   D(2,3,4,5)              0.0002         estimate D2E/DX2                !
 ! D14   D(2,3,4,19)          -180.0            estimate D2E/DX2                !
 ! D15   D(10,3,4,5)          -179.9998         estimate D2E/DX2                !
 ! D16   D(10,3,4,19)            0.0            estimate D2E/DX2                !
 ! D17   D(2,3,10,11)         -179.9999         estimate D2E/DX2                !
 ! D18   D(2,3,10,12)           -0.0002         estimate D2E/DX2                !
 ! D19   D(4,3,10,11)            0.0001         estimate D2E/DX2                !
 ! D20   D(4,3,10,12)          179.9998         estimate D2E/DX2                !
 ! D21   D(3,4,5,6)             -0.0001         estimate D2E/DX2                !
 ! D22   D(3,4,5,9)            179.9998         estimate D2E/DX2                !
 ! D23   D(19,4,5,6)          -180.0            estimate D2E/DX2                !
 ! D24   D(19,4,5,9)             0.0            estimate D2E/DX2                !
 ! D25   D(3,4,19,11)           -0.0001         estimate D2E/DX2                !
 ! D26   D(3,4,19,20)         -118.5313         estimate D2E/DX2                !
 ! D27   D(3,4,19,30)          118.5312         estimate D2E/DX2                !
 ! D28   D(5,4,19,11)          179.9997         estimate D2E/DX2                !
 ! D29   D(5,4,19,20)           61.4686         estimate D2E/DX2                !
 ! D30   D(5,4,19,30)          -61.4689         estimate D2E/DX2                !
 ! D31   D(4,5,6,1)              0.0            estimate D2E/DX2                !
 ! D32   D(4,5,6,41)          -179.9996         estimate D2E/DX2                !
 ! D33   D(9,5,6,1)           -180.0            estimate D2E/DX2                !
 ! D34   D(9,5,6,41)             0.0004         estimate D2E/DX2                !
 ! D35   D(1,6,41,43)            0.0058         estimate D2E/DX2                !
 ! D36   D(5,6,41,43)         -179.9946         estimate D2E/DX2                !
 ! D37   D(3,10,11,13)        -179.9999         estimate D2E/DX2                !
 ! D38   D(3,10,11,19)          -0.0001         estimate D2E/DX2                !
 ! D39   D(12,10,11,13)          0.0004         estimate D2E/DX2                !
 ! D40   D(12,10,11,19)       -179.9999         estimate D2E/DX2                !
 ! D41   D(3,10,12,14)        -179.9999         estimate D2E/DX2                !
 ! D42   D(3,10,12,15)           0.0            estimate D2E/DX2                !
 ! D43   D(11,10,12,14)         -0.0002         estimate D2E/DX2                !
 ! D44   D(11,10,12,15)        179.9997         estimate D2E/DX2                !
 ! D45   D(10,11,13,16)         -0.0002         estimate D2E/DX2                !
 ! D46   D(10,11,13,17)        179.9997         estimate D2E/DX2                !
 ! D47   D(19,11,13,16)       -179.9999         estimate D2E/DX2                !
 ! D48   D(19,11,13,17)          0.0            estimate D2E/DX2                !
 ! D49   D(10,11,19,4)           0.0002         estimate D2E/DX2                !
 ! D50   D(10,11,19,20)        117.4094         estimate D2E/DX2                !
 ! D51   D(10,11,19,30)       -117.4091         estimate D2E/DX2                !
 ! D52   D(13,11,19,4)         179.9999         estimate D2E/DX2                !
 ! D53   D(13,11,19,20)        -62.5909         estimate D2E/DX2                !
 ! D54   D(13,11,19,30)         62.5906         estimate D2E/DX2                !
 ! D55   D(10,12,14,16)         -0.0001         estimate D2E/DX2                !
 ! D56   D(10,12,14,18)        179.9992         estimate D2E/DX2                !
 ! D57   D(15,12,14,16)        180.0            estimate D2E/DX2                !
 ! D58   D(15,12,14,18)         -0.0007         estimate D2E/DX2                !
 ! D59   D(11,13,16,14)         -0.0002         estimate D2E/DX2                !
 ! D60   D(11,13,16,42)       -179.9991         estimate D2E/DX2                !
 ! D61   D(17,13,16,14)        180.0            estimate D2E/DX2                !
 ! D62   D(17,13,16,42)          0.001          estimate D2E/DX2                !
 ! D63   D(12,14,16,13)          0.0003         estimate D2E/DX2                !
 ! D64   D(12,14,16,42)        179.9991         estimate D2E/DX2                !
 ! D65   D(18,14,16,13)       -179.999          estimate D2E/DX2                !
 ! D66   D(18,14,16,42)         -0.0002         estimate D2E/DX2                !
 ! D67   D(13,16,42,49)       -179.9896         estimate D2E/DX2                !
 ! D68   D(14,16,42,49)          0.0115         estimate D2E/DX2                !
 ! D69   D(4,19,20,21)        -106.3155         estimate D2E/DX2                !
 ! D70   D(4,19,20,22)          70.7529         estimate D2E/DX2                !
 ! D71   D(11,19,20,21)        142.211          estimate D2E/DX2                !
 ! D72   D(11,19,20,22)        -40.7205         estimate D2E/DX2                !
 ! D73   D(30,19,20,21)         16.3973         estimate D2E/DX2                !
 ! D74   D(30,19,20,22)       -166.5343         estimate D2E/DX2                !
 ! D75   D(4,19,30,31)         -70.753          estimate D2E/DX2                !
 ! D76   D(4,19,30,32)         106.3156         estimate D2E/DX2                !
 ! D77   D(11,19,30,31)         40.7205         estimate D2E/DX2                !
 ! D78   D(11,19,30,32)       -142.2109         estimate D2E/DX2                !
 ! D79   D(20,19,30,31)        166.5342         estimate D2E/DX2                !
 ! D80   D(20,19,30,32)        -16.3972         estimate D2E/DX2                !
 ! D81   D(19,20,21,23)        176.7701         estimate D2E/DX2                !
 ! D82   D(19,20,21,40)         -3.1206         estimate D2E/DX2                !
 ! D83   D(22,20,21,23)         -0.4111         estimate D2E/DX2                !
 ! D84   D(22,20,21,40)        179.6982         estimate D2E/DX2                !
 ! D85   D(19,20,22,24)       -176.7188         estimate D2E/DX2                !
 ! D86   D(19,20,22,25)          3.0524         estimate D2E/DX2                !
 ! D87   D(21,20,22,24)          0.4551         estimate D2E/DX2                !
 ! D88   D(21,20,22,25)       -179.7738         estimate D2E/DX2                !
 ! D89   D(20,21,23,26)          0.0072         estimate D2E/DX2                !
 ! D90   D(20,21,23,27)        179.8413         estimate D2E/DX2                !
 ! D91   D(40,21,23,26)        179.9048         estimate D2E/DX2                !
 ! D92   D(40,21,23,27)         -0.261          estimate D2E/DX2                !
 ! D93   D(20,21,40,32)        -12.0758         estimate D2E/DX2                !
 ! D94   D(23,21,40,32)        168.0267         estimate D2E/DX2                !
 ! D95   D(20,22,24,26)         -0.0989         estimate D2E/DX2                !
 ! D96   D(20,22,24,28)        179.8129         estimate D2E/DX2                !
 ! D97   D(25,22,24,26)       -179.8678         estimate D2E/DX2                !
 ! D98   D(25,22,24,28)          0.0439         estimate D2E/DX2                !
 ! D99   D(21,23,26,24)          0.365          estimate D2E/DX2                !
 ! D100  D(21,23,26,29)       -179.9388         estimate D2E/DX2                !
 ! D101  D(27,23,26,24)       -179.463          estimate D2E/DX2                !
 ! D102  D(27,23,26,29)          0.2331         estimate D2E/DX2                !
 ! D103  D(22,24,26,23)         -0.3208         estimate D2E/DX2                !
 ! D104  D(22,24,26,29)        179.9847         estimate D2E/DX2                !
 ! D105  D(28,24,26,23)        179.7678         estimate D2E/DX2                !
 ! D106  D(28,24,26,29)          0.0733         estimate D2E/DX2                !
 ! D107  D(19,30,31,33)        176.7188         estimate D2E/DX2                !
 ! D108  D(19,30,31,34)         -3.0521         estimate D2E/DX2                !
 ! D109  D(32,30,31,33)         -0.4552         estimate D2E/DX2                !
 ! D110  D(32,30,31,34)        179.7739         estimate D2E/DX2                !
 ! D111  D(19,30,32,35)       -176.7702         estimate D2E/DX2                !
 ! D112  D(19,30,32,40)          3.1206         estimate D2E/DX2                !
 ! D113  D(31,30,32,35)          0.4111         estimate D2E/DX2                !
 ! D114  D(31,30,32,40)       -179.6981         estimate D2E/DX2                !
 ! D115  D(30,31,33,36)          0.099          estimate D2E/DX2                !
 ! D116  D(30,31,33,37)       -179.8129         estimate D2E/DX2                !
 ! D117  D(34,31,33,36)        179.8677         estimate D2E/DX2                !
 ! D118  D(34,31,33,37)         -0.0442         estimate D2E/DX2                !
 ! D119  D(30,32,35,36)         -0.0072         estimate D2E/DX2                !
 ! D120  D(30,32,35,38)       -179.8414         estimate D2E/DX2                !
 ! D121  D(40,32,35,36)       -179.9049         estimate D2E/DX2                !
 ! D122  D(40,32,35,38)          0.261          estimate D2E/DX2                !
 ! D123  D(30,32,40,21)         12.0759         estimate D2E/DX2                !
 ! D124  D(35,32,40,21)       -168.0267         estimate D2E/DX2                !
 ! D125  D(31,33,36,35)          0.3207         estimate D2E/DX2                !
 ! D126  D(31,33,36,39)       -179.9848         estimate D2E/DX2                !
 ! D127  D(37,33,36,35)       -179.7678         estimate D2E/DX2                !
 ! D128  D(37,33,36,39)         -0.0732         estimate D2E/DX2                !
 ! D129  D(32,35,36,33)         -0.365          estimate D2E/DX2                !
 ! D130  D(32,35,36,39)        179.9388         estimate D2E/DX2                !
 ! D131  D(38,35,36,33)        179.4631         estimate D2E/DX2                !
 ! D132  D(38,35,36,39)         -0.2331         estimate D2E/DX2                !
 ! D133  D(6,41,43,44)         -60.5811         estimate D2E/DX2                !
 ! D134  D(6,41,43,45)          60.5712         estimate D2E/DX2                !
 ! D135  D(6,41,43,46)         179.9959         estimate D2E/DX2                !
 ! D136  D(16,42,49,50)         60.579          estimate D2E/DX2                !
 ! D137  D(16,42,49,51)        -60.6027         estimate D2E/DX2                !
 ! D138  D(16,42,49,52)        179.9887         estimate D2E/DX2                !
 ! D139  D(41,43,46,47)        -61.0361         estimate D2E/DX2                !
 ! D140  D(41,43,46,48)         61.0257         estimate D2E/DX2                !
 ! D141  D(41,43,46,55)        179.9942         estimate D2E/DX2                !
 ! D142  D(44,43,46,47)        179.4145         estimate D2E/DX2                !
 ! D143  D(44,43,46,48)        -58.5238         estimate D2E/DX2                !
 ! D144  D(44,43,46,55)         60.4447         estimate D2E/DX2                !
 ! D145  D(45,43,46,47)         58.5136         estimate D2E/DX2                !
 ! D146  D(45,43,46,48)       -179.4247         estimate D2E/DX2                !
 ! D147  D(45,43,46,55)        -60.4561         estimate D2E/DX2                !
 ! D148  D(43,46,55,57)        179.9853         estimate D2E/DX2                !
 ! D149  D(47,46,55,57)         59.79           estimate D2E/DX2                !
 ! D150  D(48,46,55,57)        -59.8224         estimate D2E/DX2                !
 ! D151  D(42,49,52,53)         59.908          estimate D2E/DX2                !
 ! D152  D(42,49,52,54)        -59.9164         estimate D2E/DX2                !
 ! D153  D(42,49,52,56)        179.9957         estimate D2E/DX2                !
 ! D154  D(50,49,52,53)        179.653          estimate D2E/DX2                !
 ! D155  D(50,49,52,54)         59.8286         estimate D2E/DX2                !
 ! D156  D(50,49,52,56)        -60.2593         estimate D2E/DX2                !
 ! D157  D(51,49,52,53)        -59.8366         estimate D2E/DX2                !
 ! D158  D(51,49,52,54)       -179.661          estimate D2E/DX2                !
 ! D159  D(51,49,52,56)         60.2511         estimate D2E/DX2                !
 ! D160  D(49,52,56,58)        179.996          estimate D2E/DX2                !
 ! D161  D(53,52,56,58)        -60.4178         estimate D2E/DX2                !
 ! D162  D(54,52,56,58)         60.4092         estimate D2E/DX2                !
 ! D163  D(46,55,57,62)       -179.9985         estimate D2E/DX2                !
 ! D164  D(46,55,57,66)          0.0014         estimate D2E/DX2                !
 ! D165  D(52,56,58,59)         60.9379         estimate D2E/DX2                !
 ! D166  D(52,56,58,60)        179.9996         estimate D2E/DX2                !
 ! D167  D(52,56,58,61)        -60.9387         estimate D2E/DX2                !
 ! D168  D(55,57,62,63)        179.9963         estimate D2E/DX2                !
 ! D169  D(55,57,62,64)        -59.1698         estimate D2E/DX2                !
 ! D170  D(55,57,62,65)         59.1615         estimate D2E/DX2                !
 ! D171  D(66,57,62,63)         -0.0035         estimate D2E/DX2                !
 ! D172  D(66,57,62,64)        120.8303         estimate D2E/DX2                !
 ! D173  D(66,57,62,65)       -120.8384         estimate D2E/DX2                !
 --------------------------------------------------------------------------------
 Trust Radius=3.00D-01 FncErr=1.00D-07 GrdErr=1.00D-06 EigMax=2.50D+02 EigMin=1.00D-04
 Number of steps in this run=    376 maximum allowed number of steps=    396.
 GradGradGradGradGradGradGradGradGradGradGradGradGradGradGradGradGradGrad

 Stoichiometry    C32H28O6
 Framework group  C1[X(C32H28O6)]
 Deg. of freedom   192
 Full point group                 C1      NOp   1
 Largest Abelian subgroup         C1      NOp   1
 Largest concise Abelian subgroup C1      NOp   1
                         Standard orientation:                         
 ---------------------------------------------------------------------
 Center     Atomic      Atomic             Coordinates (Angstroms)
 Number     Number       Type             X           Y           Z
 ---------------------------------------------------------------------
      1          6           0        2.523616   -2.229552    0.000096
      2          6           0        1.162871   -2.564367    0.000018
      3          6           0        0.203288   -1.553574   -0.000014
      4          6           0        0.612780   -0.200856    0.000034
      5          6           0        1.952490    0.143171    0.000109
      6          6           0        2.908854   -0.883718    0.000140
      7          1           0        3.262530   -3.016642    0.000126
      8          1           0        0.873333   -3.607319   -0.000016
      9          1           0        2.289567    1.169902    0.000144
     10          6           0       -1.264863   -1.603219   -0.000094
     11          6           0       -1.765749   -0.281371   -0.000097
     12          6           0       -2.153721   -2.677739   -0.000167
     13          6           0       -3.126704   -0.031760   -0.000164
     14          6           0       -3.533791   -2.437451   -0.000238
     15          1           0       -1.793231   -3.698295   -0.000171
     16          6           0       -4.012375   -1.120928   -0.000233
     17          1           0       -3.531410    0.970064   -0.000163
     18          1           0       -4.217452   -3.272883   -0.000307
     19          6           0       -0.615622    0.742456   -0.000013
     20          6           0       -0.622251    1.614091   -1.264050
     21          6           0       -0.295110    2.971220   -1.207673
     22          6           0       -0.897175    1.067361   -2.528160
     23          6           0       -0.230307    3.767473   -2.353378
     24          6           0       -0.837054    1.843995   -3.682852
     25          1           0       -1.156496    0.020119   -2.597786
     26          6           0       -0.498469    3.200584   -3.594813
     27          1           0        0.025788    4.810989   -2.242651
     28          1           0       -1.050492    1.397318   -4.644159
     29          1           0       -0.449287    3.810619   -4.486481
     30          6           0       -0.622386    1.614040    1.264058
     31          6           0       -0.897446    1.067262    2.528117
     32          6           0       -0.295239    2.971173    1.207769
     33          6           0       -0.837448    1.843850    3.682846
     34          1           0       -1.156772    0.020017    2.597675
     35          6           0       -0.230559    3.767380    2.353513
     36          6           0       -0.498854    3.200443    3.594897
     37          1           0       -1.050990    1.397136    4.644113
     38          1           0        0.025549    4.810901    2.242854
     39          1           0       -0.449767    3.810443    4.486594
     40          8           0       -0.008185    3.623574    0.000077
     41          8           0        4.238715   -0.453101    0.000224
     42          8           0       -5.366147   -0.783712   -0.000318
     43          6           0        5.310448   -1.434344    0.000143
     44          1           0        5.256760   -2.065604    0.889859
     45          1           0        5.256695   -2.065513   -0.889632
     46          6           0        6.589832   -0.623561    0.000163
     47          1           0        6.665783    0.004539   -0.884785
     48          1           0        6.665690    0.004554    0.885110
     49          6           0       -6.370281   -1.837699   -0.000165
     50          1           0       -6.272856   -2.462793    0.889781
     51          1           0       -6.273086   -2.462835   -0.890107
     52          6           0       -7.712626   -1.134309   -0.000024
     53          1           0       -7.807759   -0.502742   -0.889320
     54          1           0       -7.807614   -0.502801    0.889330
     55          8           0        7.677557   -1.617273    0.000225
     56          8           0       -8.713582   -2.182357    0.000023
     57          6           0        8.975060   -1.139165   -0.000060
     58          6           0      -10.077204   -1.692546    0.000250
     59          1           0      -10.283063   -1.091716   -0.891902
     60          1           0      -10.716235   -2.570724    0.000255
     61          1           0      -10.282822   -1.091880    0.892568
     62          6           0        9.965284   -2.263668    0.000007
     63          1           0       10.972459   -1.858813   -0.000286
     64          1           0        9.821371   -2.893196    0.878543
     65          1           0        9.821020   -2.893622   -0.878167
     66          8           0        9.235023    0.063211   -0.000331
 ---------------------------------------------------------------------
 Rotational constants (GHZ):           0.1585087           0.0396572           0.0368709
 Standard basis: 6-311++G(d,p) (5D, 7F)
 There are  1070 symmetry adapted cartesian basis functions of A   symmetry.
 There are  1032 symmetry adapted basis functions of A   symmetry.
  1032 basis functions,  1620 primitive gaussians,  1070 cartesian basis functions
   134 alpha electrons      134 beta electrons
       nuclear repulsion energy      3879.7199714456 Hartrees.
 NAtoms=   66 NActive=   66 NUniq=   66 SFac= 1.00D+00 NAtFMM=   60 NAOKFM=T Big=T
 Integral buffers will be    131072 words long.
 Raffenetti 2 integral format.
 Two-electron integral symmetry is turned on.
 Nuclear repulsion after empirical dispersion term =     3879.6680991687 Hartrees.
 One-electron integrals computed using PRISM.
 NBasis=  1032 RedAO= T EigKep=  1.28D-06  NBF=  1032
 NBsUse=  1015 1.00D-06 EigRej=  7.56D-07 NBFU=  1015
 ExpMin= 3.60D-02 ExpMax= 8.59D+03 ExpMxC= 1.30D+03 IAcc=3 IRadAn=         5 AccDes= 0.00D+00
 Harris functional with IExCor= 4639 and IRadAn=       5 diagonalized for initial guess.
 HarFok:  IExCor= 4639 AccDes= 0.00D+00 IRadAn=         5 IDoV= 1 UseB2=F ITyADJ=14
 ICtDFT=  3500011 ScaDFX=  1.000000  1.000000  1.000000  1.000000
 FoFCou: FMM=F IPFlag=           0 FMFlag=      100000 FMFlg1=        2001
         NFxFlg=           0 DoJE=T BraDBF=F KetDBF=T FulRan=T
         wScrn=  0.000000 ICntrl=       500 IOpCl=  0 I1Cent=   200000004 NGrid=           0
         NMat0=    1 NMatS0=      1 NMatT0=    0 NMatD0=    1 NMtDS0=    0 NMtDT0=    0
 Petite list used in FoFCou.
 Requested convergence on RMS density matrix=1.00D-08 within 128 cycles.
 Requested convergence on MAX density matrix=1.00D-06.
 Requested convergence on             energy=1.00D-06.
 No special actions if energy rises.
 SCF Done:  E(RwB97XD) =  -1687.47668628     A.U. after   17 cycles
            NFock= 17  Conv=0.49D-08     -V/T= 2.0047

 **********************************************************************

            Population analysis using the SCF Density.

 **********************************************************************

 Orbital symmetries:
       Occupied  (A) (A) (A) (A) (A) (A) (A) (A) (A) (A) (A) (A)
                 (A) (A) (A) (A) (A) (A) (A) (A) (A) (A) (A) (A)
                 (A) (A) (A) (A) (A) (A) (A) (A) (A) (A) (A) (A)
                 (A) (A) (A) (A) (A) (A) (A) (A) (A) (A) (A) (A)
                 (A) (A) (A) (A) (A) (A) (A) (A) (A) (A) (A) (A)
                 (A) (A) (A) (A) (A) (A) (A) (A) (A) (A) (A) (A)
                 (A) (A) (A) (A) (A) (A) (A) (A) (A) (A) (A) (A)
                 (A) (A) (A) (A) (A) (A) (A) (A) (A) (A) (A) (A)
                 (A) (A) (A) (A) (A) (A) (A) (A) (A) (A) (A) (A)
                 (A) (A) (A) (A) (A) (A) (A) (A) (A) (A) (A) (A)
                 (A) (A) (A) (A) (A) (A) (A) (A) (A) (A) (A) (A)
                 (A) (A)
       Virtual   (A) (A) (A) (A) (A) (A) (A) (A) (A) (A) (A) (A)
                 (A) (A) (A) (A) (A) (A) (A) (A) (A) (A) (A) (A)
                 (A) (A) (A) (A) (A) (A) (A) (A) (A) (A) (A) (A)
                 (A) (A) (A) (A) (A) (A) (A) (A) (A) (A) (A) (A)
                 (A) (A) (A) (A) (A) (A) (A) (A) (A) (A) (A) (A)
                 (A) (A) (A) (A) (A) (A) (A) (A) (A) (A) (A) (A)
                 (A) (A) (A) (A) (A) (A) (A) (A) (A) (A) (A) (A)
                 (A) (A) (A) (A) (A) (A) (A) (A) (A) (A) (A) (A)
                 (A) (A) (A) (A) (A) (A) (A) (A) (A) (A) (A) (A)
                 (A) (A) (A) (A) (A) (A) (A) (A) (A) (A) (A) (A)
                 (A) (A) (A) (A) (A) (A) (A) (A) (A) (A) (A) (A)
                 (A) (A) (A) (A) (A) (A) (A) (A) (A) (A) (A) (A)
                 (A) (A) (A) (A) (A) (A) (A) (A) (A) (A) (A) (A)
                 (A) (A) (A) (A) (A) (A) (A) (A) (A) (A) (A) (A)
                 (A) (A) (A) (A) (A) (A) (A) (A) (A) (A) (A) (A)
                 (A) (A) (A) (A) (A) (A) (A) (A) (A) (A) (A) (A)
                 (A) (A) (A) (A) (A) (A) (A) (A) (A) (A) (A) (A)
                 (A) (A) (A) (A) (A) (A) (A) (A) (A) (A) (A) (A)
                 (A) (A) (A) (A) (A) (A) (A) (A) (A) (A) (A) (A)
                 (A) (A) (A) (A) (A) (A) (A) (A) (A) (A) (A) (A)
                 (A) (A) (A) (A) (A) (A) (A) (A) (A) (A) (A) (A)
                 (A) (A) (A) (A) (A) (A) (A) (A) (A) (A) (A) (A)
                 (A) (A) (A) (A) (A) (A) (A) (A) (A) (A) (A) (A)
                 (A) (A) (A) (A) (A) (A) (A) (A) (A) (A) (A) (A)
                 (A) (A) (A) (A) (A) (A) (A) (A) (A) (A) (A) (A)
                 (A) (A) (A) (A) (A) (A) (A) (A) (A) (A) (A) (A)
                 (A) (A) (A) (A) (A) (A) (A) (A) (A) (A) (A) (A)
                 (A) (A) (A) (A) (A) (A) (A) (A) (A) (A) (A) (A)
                 (A) (A) (A) (A) (A) (A) (A) (A) (A) (A) (A) (A)
                 (A) (A) (A) (A) (A) (A) (A) (A) (A) (A) (A) (A)
                 (A) (A) (A) (A) (A) (A) (A) (A) (A) (A) (A) (A)
                 (A) (A) (A) (A) (A) (A) (A) (A) (A) (A) (A) (A)
                 (A) (A) (A) (A) (A) (A) (A) (A) (A) (A) (A) (A)
                 (A) (A) (A) (A) (A) (A) (A) (A) (A) (A) (A) (A)
                 (A) (A) (A) (A) (A) (A) (A) (A) (A) (A) (A) (A)
                 (A) (A) (A) (A) (A) (A) (A) (A) (A) (A) (A) (A)
                 (A) (A) (A) (A) (A) (A) (A) (A) (A) (A) (A) (A)
                 (A) (A) (A) (A) (A) (A) (A) (A) (A) (A) (A) (A)
                 (A) (A) (A) (A) (A) (A) (A) (A) (A) (A) (A) (A)
                 (A) (A) (A) (A) (A) (A) (A) (A) (A) (A) (A) (A)
                 (A) (A) (A) (A) (A) (A) (A) (A) (A) (A) (A) (A)
                 (A) (A) (A) (A) (A) (A) (A) (A) (A) (A) (A) (A)
                 (A) (A) (A) (A) (A) (A) (A) (A) (A) (A) (A) (A)
                 (A) (A) (A) (A) (A) (A) (A) (A) (A) (A) (A) (A)
                 (A) (A) (A) (A) (A) (A) (A) (A) (A) (A) (A) (A)
                 (A) (A) (A) (A) (A) (A) (A) (A) (A) (A) (A) (A)
                 (A) (A) (A) (A) (A) (A) (A) (A) (A) (A) (A) (A)
                 (A) (A) (A) (A) (A) (A) (A) (A) (A) (A) (A) (A)
                 (A) (A) (A) (A) (A) (A) (A) (A) (A) (A) (A) (A)
                 (A) (A) (A) (A) (A) (A) (A) (A) (A) (A) (A) (A)
                 (A) (A) (A) (A) (A) (A) (A) (A) (A) (A) (A) (A)
                 (A) (A) (A) (A) (A) (A) (A) (A) (A) (A) (A) (A)
                 (A) (A) (A) (A) (A) (A) (A) (A) (A) (A) (A) (A)
                 (A) (A) (A) (A) (A) (A) (A) (A) (A) (A) (A) (A)
                 (A) (A) (A) (A) (A) (A) (A) (A) (A) (A) (A) (A)
                 (A) (A) (A) (A) (A) (A) (A) (A) (A) (A) (A) (A)
                 (A) (A) (A) (A) (A) (A) (A) (A) (A) (A) (A) (A)
                 (A) (A) (A) (A) (A) (A) (A) (A) (A) (A) (A) (A)
                 (A) (A) (A) (A) (A) (A) (A) (A) (A) (A) (A) (A)
                 (A) (A) (A) (A) (A) (A) (A) (A) (A) (A) (A) (A)
                 (A) (A) (A) (A) (A) (A) (A) (A) (A) (A) (A) (A)
                 (A) (A) (A) (A) (A) (A) (A) (A) (A) (A) (A) (A)
                 (A) (A) (A) (A) (A) (A) (A) (A) (A) (A) (A) (A)
                 (A) (A) (A) (A) (A) (A) (A) (A) (A) (A) (A) (A)
                 (A) (A) (A) (A) (A) (A) (A) (A) (A) (A) (A) (A)
                 (A) (A) (A) (A) (A) (A) (A) (A) (A) (A) (A) (A)
                 (A) (A) (A) (A) (A) (A) (A) (A) (A) (A) (A) (A)
                 (A) (A) (A) (A) (A) (A) (A) (A) (A) (A) (A) (A)
                 (A) (A) (A) (A) (A) (A) (A) (A) (A) (A) (A) (A)
                 (A) (A) (A) (A) (A) (A) (A) (A) (A) (A) (A) (A)
                 (A) (A) (A) (A) (A) (A) (A) (A) (A) (A) (A) (A)
                 (A) (A) (A) (A) (A) (A) (A) (A) (A) (A) (A) (A)
                 (A) (A) (A) (A) (A) (A) (A) (A) (A) (A) (A) (A)
                 (A) (A) (A) (A) (A)
 The electronic state is 1-A.
 Alpha  occ. eigenvalues --  -19.30079 -19.29489 -19.28427 -19.28152 -19.25990
 Alpha  occ. eigenvalues --  -19.24452 -10.43173 -10.35853 -10.35843 -10.35723
 Alpha  occ. eigenvalues --  -10.35722 -10.35414 -10.35214 -10.34629 -10.33989
 Alpha  occ. eigenvalues --  -10.33535 -10.33241 -10.30801 -10.30800 -10.30458
 Alpha  occ. eigenvalues --  -10.30423 -10.30206 -10.30035 -10.29970 -10.29869
 Alpha  occ. eigenvalues --  -10.29782 -10.29585 -10.29552 -10.29451 -10.29451
 Alpha  occ. eigenvalues --  -10.29368 -10.29368 -10.29162 -10.29123 -10.29123
 Alpha  occ. eigenvalues --  -10.29085 -10.28808 -10.28808  -1.20139  -1.17914
 Alpha  occ. eigenvalues --   -1.16083  -1.15866  -1.12894  -1.11746  -1.00520
 Alpha  occ. eigenvalues --   -0.96901  -0.96077  -0.95556  -0.91985  -0.90063
 Alpha  occ. eigenvalues --   -0.88742  -0.86848  -0.86717  -0.85798  -0.85320
 Alpha  occ. eigenvalues --   -0.85235  -0.84495  -0.83229  -0.80937  -0.78608
 Alpha  occ. eigenvalues --   -0.77665  -0.74834  -0.74150  -0.73331  -0.72450
 Alpha  occ. eigenvalues --   -0.71621  -0.69607  -0.68797  -0.68431  -0.67530
 Alpha  occ. eigenvalues --   -0.66980  -0.65327  -0.64417  -0.62486  -0.62035
 Alpha  occ. eigenvalues --   -0.60493  -0.60077  -0.59455  -0.59209  -0.58743
 Alpha  occ. eigenvalues --   -0.58410  -0.57222  -0.56513  -0.56179  -0.55999
 Alpha  occ. eigenvalues --   -0.55895  -0.55296  -0.55276  -0.54774  -0.54157
 Alpha  occ. eigenvalues --   -0.53892  -0.53537  -0.53300  -0.52649  -0.52301
 Alpha  occ. eigenvalues --   -0.51699  -0.51216  -0.51121  -0.50743  -0.50502
 Alpha  occ. eigenvalues --   -0.49510  -0.49306  -0.48064  -0.47793  -0.47457
 Alpha  occ. eigenvalues --   -0.47127  -0.46816  -0.46601  -0.46213  -0.45833
 Alpha  occ. eigenvalues --   -0.45593  -0.45232  -0.44525  -0.44267  -0.44218
 Alpha  occ. eigenvalues --   -0.43285  -0.42854  -0.42257  -0.42115  -0.41611
 Alpha  occ. eigenvalues --   -0.41385  -0.40284  -0.40024  -0.39657  -0.36996
 Alpha  occ. eigenvalues --   -0.35465  -0.35352  -0.33859  -0.33706  -0.33006
 Alpha  occ. eigenvalues --   -0.32761  -0.31706  -0.29181  -0.27210
 Alpha virt. eigenvalues --    0.02404   0.03560   0.03574   0.03774   0.03965
 Alpha virt. eigenvalues --    0.04352   0.04355   0.04505   0.04652   0.05300
 Alpha virt. eigenvalues --    0.05644   0.05826   0.05851   0.05968   0.06153
 Alpha virt. eigenvalues --    0.06259   0.06613   0.06808   0.06890   0.06961
 Alpha virt. eigenvalues --    0.07297   0.07730   0.07985   0.08122   0.08201
 Alpha virt. eigenvalues --    0.08839   0.08855   0.08995   0.09076   0.09512
 Alpha virt. eigenvalues --    0.09765   0.09833   0.10346   0.10594   0.10662
 Alpha virt. eigenvalues --    0.10987   0.11103   0.11207   0.11941   0.12563
 Alpha virt. eigenvalues --    0.13050   0.13273   0.13501   0.14144   0.14424
 Alpha virt. eigenvalues --    0.14475   0.14616   0.15217   0.15229   0.15317
 Alpha virt. eigenvalues --    0.15521   0.15650   0.15693   0.15795   0.15952
 Alpha virt. eigenvalues --    0.16075   0.16302   0.16324   0.16527   0.16811
 Alpha virt. eigenvalues --    0.16890   0.16974   0.17168   0.17257   0.17524
 Alpha virt. eigenvalues --    0.17710   0.17758   0.17819   0.18045   0.18084
 Alpha virt. eigenvalues --    0.18318   0.18511   0.18643   0.18781   0.18794
 Alpha virt. eigenvalues --    0.19140   0.19161   0.19459   0.19529   0.19602
 Alpha virt. eigenvalues --    0.19629   0.19915   0.20083   0.20269   0.20489
 Alpha virt. eigenvalues --    0.20651   0.20777   0.20938   0.21241   0.21321
 Alpha virt. eigenvalues --    0.21457   0.21479   0.21748   0.21861   0.22320
 Alpha virt. eigenvalues --    0.22327   0.22463   0.22572   0.23097   0.23247
 Alpha virt. eigenvalues --    0.23499   0.23585   0.23650   0.24123   0.24187
 Alpha virt. eigenvalues --    0.24566   0.24761   0.24781   0.24995   0.25294
 Alpha virt. eigenvalues --    0.25362   0.25608   0.25672   0.25963   0.26172
 Alpha virt. eigenvalues --    0.26565   0.26736   0.26917   0.26958   0.27127
 Alpha virt. eigenvalues --    0.27435   0.27550   0.27719   0.27837   0.27970
 Alpha virt. eigenvalues --    0.28144   0.28236   0.28350   0.28676   0.28879
 Alpha virt. eigenvalues --    0.29297   0.29490   0.29494   0.29833   0.30036
 Alpha virt. eigenvalues --    0.30550   0.30629   0.30668   0.30737   0.31004
 Alpha virt. eigenvalues --    0.31064   0.31314   0.31379   0.31790   0.32020
 Alpha virt. eigenvalues --    0.32312   0.32612   0.32745   0.32806   0.32963
 Alpha virt. eigenvalues --    0.33243   0.33344   0.33619   0.33836   0.34022
 Alpha virt. eigenvalues --    0.34144   0.34146   0.34371   0.34946   0.35192
 Alpha virt. eigenvalues --    0.35303   0.35338   0.35513   0.35593   0.35867
 Alpha virt. eigenvalues --    0.36017   0.36193   0.36212   0.36409   0.36809
 Alpha virt. eigenvalues --    0.36950   0.37087   0.37286   0.37370   0.37560
 Alpha virt. eigenvalues --    0.37836   0.38038   0.38305   0.38453   0.38580
 Alpha virt. eigenvalues --    0.38724   0.38747   0.39196   0.39543   0.39742
 Alpha virt. eigenvalues --    0.40130   0.40196   0.40342   0.40623   0.40857
 Alpha virt. eigenvalues --    0.41058   0.41078   0.41290   0.41553   0.42048
 Alpha virt. eigenvalues --    0.42284   0.42459   0.42603   0.43026   0.43132
 Alpha virt. eigenvalues --    0.43142   0.43973   0.44187   0.44326   0.44546
 Alpha virt. eigenvalues --    0.44596   0.45091   0.45515   0.45701   0.45995
 Alpha virt. eigenvalues --    0.46046   0.46278   0.46421   0.46463   0.47018
 Alpha virt. eigenvalues --    0.47615   0.47924   0.48315   0.48470   0.49194
 Alpha virt. eigenvalues --    0.49421   0.49675   0.49842   0.50651   0.50781
 Alpha virt. eigenvalues --    0.51083   0.51189   0.51324   0.51557   0.51610
 Alpha virt. eigenvalues --    0.53222   0.53396   0.53743   0.53818   0.54130
 Alpha virt. eigenvalues --    0.54929   0.55484   0.56448   0.56552   0.57170
 Alpha virt. eigenvalues --    0.57469   0.57955   0.58479   0.58873   0.59843
 Alpha virt. eigenvalues --    0.60427   0.60619   0.61344   0.61833   0.62087
 Alpha virt. eigenvalues --    0.62235   0.62849   0.62899   0.63621   0.63775
 Alpha virt. eigenvalues --    0.64488   0.65082   0.65090   0.65279   0.65740
 Alpha virt. eigenvalues --    0.66379   0.66612   0.66857   0.67000   0.67675
 Alpha virt. eigenvalues --    0.67849   0.68122   0.68363   0.68679   0.68765
 Alpha virt. eigenvalues --    0.69408   0.69608   0.70479   0.70732   0.70971
 Alpha virt. eigenvalues --    0.71359   0.71709   0.71722   0.72127   0.72169
 Alpha virt. eigenvalues --    0.72977   0.72998   0.73312   0.73729   0.74016
 Alpha virt. eigenvalues --    0.74292   0.74684   0.74702   0.75196   0.75384
 Alpha virt. eigenvalues --    0.75450   0.75704   0.75742   0.76317   0.76914
 Alpha virt. eigenvalues --    0.77021   0.77167   0.77655   0.77906   0.78750
 Alpha virt. eigenvalues --    0.78891   0.79359   0.79370   0.79731   0.80030
 Alpha virt. eigenvalues --    0.80619   0.80666   0.81021   0.81316   0.81561
 Alpha virt. eigenvalues --    0.81820   0.82021   0.82161   0.82255   0.82673
 Alpha virt. eigenvalues --    0.82981   0.83195   0.83308   0.84077   0.85062
 Alpha virt. eigenvalues --    0.85402   0.85411   0.85480   0.86129   0.86474
 Alpha virt. eigenvalues --    0.86649   0.86862   0.87323   0.87662   0.88358
 Alpha virt. eigenvalues --    0.88692   0.88746   0.89253   0.90191   0.91204
 Alpha virt. eigenvalues --    0.91276   0.91424   0.91823   0.91942   0.92241
 Alpha virt. eigenvalues --    0.93351   0.93834   0.94250   0.94559   0.94750
 Alpha virt. eigenvalues --    0.94856   0.95136   0.96161   0.96243   0.96500
 Alpha virt. eigenvalues --    0.97407   0.97966   0.98183   0.98797   0.99012
 Alpha virt. eigenvalues --    0.99536   0.99930   1.00935   1.01213   1.01370
 Alpha virt. eigenvalues --    1.02061   1.02368   1.03438   1.04138   1.04611
 Alpha virt. eigenvalues --    1.04636   1.05160   1.06173   1.06498   1.06749
 Alpha virt. eigenvalues --    1.07088   1.07436   1.07992   1.08376   1.08823
 Alpha virt. eigenvalues --    1.08968   1.09157   1.10056   1.10215   1.10374
 Alpha virt. eigenvalues --    1.10903   1.11472   1.11933   1.12067   1.12620
 Alpha virt. eigenvalues --    1.12665   1.13391   1.13618   1.13707   1.14174
 Alpha virt. eigenvalues --    1.14514   1.14727   1.15553   1.15687   1.15956
 Alpha virt. eigenvalues --    1.16344   1.16679   1.16967   1.17735   1.18438
 Alpha virt. eigenvalues --    1.18830   1.18987   1.19139   1.20249   1.20861
 Alpha virt. eigenvalues --    1.20985   1.21514   1.21756   1.22178   1.22536
 Alpha virt. eigenvalues --    1.22965   1.23600   1.24065   1.25358   1.26298
 Alpha virt. eigenvalues --    1.26784   1.27638   1.28707   1.29039   1.29745
 Alpha virt. eigenvalues --    1.29764   1.30997   1.31242   1.31897   1.32234
 Alpha virt. eigenvalues --    1.33364   1.33783   1.34275   1.34413   1.35247
 Alpha virt. eigenvalues --    1.36427   1.37071   1.37357   1.37962   1.38663
 Alpha virt. eigenvalues --    1.39001   1.40318   1.40833   1.41247   1.41945
 Alpha virt. eigenvalues --    1.42507   1.43788   1.44413   1.44517   1.45364
 Alpha virt. eigenvalues --    1.45644   1.46471   1.47820   1.48795   1.50027
 Alpha virt. eigenvalues --    1.50680   1.52019   1.52175   1.52676   1.52908
 Alpha virt. eigenvalues --    1.55509   1.55769   1.55917   1.56193   1.57152
 Alpha virt. eigenvalues --    1.57877   1.59873   1.60274   1.60589   1.61502
 Alpha virt. eigenvalues --    1.61535   1.61955   1.62489   1.62731   1.62806
 Alpha virt. eigenvalues --    1.63129   1.63379   1.63670   1.64067   1.64797
 Alpha virt. eigenvalues --    1.65168   1.65476   1.65532   1.65839   1.65909
 Alpha virt. eigenvalues --    1.66193   1.66313   1.66389   1.66774   1.67327
 Alpha virt. eigenvalues --    1.67424   1.67991   1.68051   1.68393   1.68927
 Alpha virt. eigenvalues --    1.69067   1.69329   1.69742   1.69972   1.70102
 Alpha virt. eigenvalues --    1.71630   1.71768   1.72501   1.73861   1.73935
 Alpha virt. eigenvalues --    1.74280   1.74693   1.74802   1.75163   1.75270
 Alpha virt. eigenvalues --    1.75392   1.77214   1.77343   1.77595   1.78688
 Alpha virt. eigenvalues --    1.78739   1.79058   1.79953   1.80124   1.80512
 Alpha virt. eigenvalues --    1.80630   1.81062   1.82790   1.83532   1.83593
 Alpha virt. eigenvalues --    1.84085   1.84186   1.84470   1.84843   1.85391
 Alpha virt. eigenvalues --    1.86826   1.87968   1.88268   1.88801   1.89351
 Alpha virt. eigenvalues --    1.89603   1.90416   1.90756   1.91046   1.91273
 Alpha virt. eigenvalues --    1.91417   1.91525   1.93011   1.93884   1.94637
 Alpha virt. eigenvalues --    1.95134   1.95578   1.96347   1.96464   1.97110
 Alpha virt. eigenvalues --    1.97265   1.97874   1.99154   1.99533   2.00297
 Alpha virt. eigenvalues --    2.00712   2.00984   2.01205   2.01412   2.02299
 Alpha virt. eigenvalues --    2.02657   2.03274   2.04002   2.05262   2.05802
 Alpha virt. eigenvalues --    2.06117   2.06841   2.07554   2.07703   2.08246
 Alpha virt. eigenvalues --    2.08332   2.08387   2.08743   2.09453   2.10046
 Alpha virt. eigenvalues --    2.10696   2.11293   2.12341   2.12990   2.13845
 Alpha virt. eigenvalues --    2.14080   2.15663   2.15917   2.16810   2.17139
 Alpha virt. eigenvalues --    2.17305   2.18354   2.18590   2.19511   2.20299
 Alpha virt. eigenvalues --    2.20301   2.20646   2.20852   2.21532   2.23405
 Alpha virt. eigenvalues --    2.23517   2.23991   2.24107   2.24947   2.25438
 Alpha virt. eigenvalues --    2.25443   2.28322   2.28410   2.29910   2.30246
 Alpha virt. eigenvalues --    2.30252   2.30727   2.31779   2.33530   2.34801
 Alpha virt. eigenvalues --    2.35320   2.35585   2.36379   2.37610   2.38652
 Alpha virt. eigenvalues --    2.40178   2.40509   2.40862   2.42491   2.42541
 Alpha virt. eigenvalues --    2.42996   2.43761   2.45235   2.46118   2.47123
 Alpha virt. eigenvalues --    2.47689   2.49121   2.49719   2.51232   2.51255
 Alpha virt. eigenvalues --    2.52425   2.53403   2.53965   2.54304   2.55574
 Alpha virt. eigenvalues --    2.56910   2.57322   2.58477   2.58598   2.58909
 Alpha virt. eigenvalues --    2.59012   2.59076   2.60426   2.60730   2.60911
 Alpha virt. eigenvalues --    2.61059   2.61619   2.62166   2.62312   2.62744
 Alpha virt. eigenvalues --    2.62945   2.65485   2.65725   2.66881   2.67405
 Alpha virt. eigenvalues --    2.69720   2.70646   2.71023   2.71759   2.72090
 Alpha virt. eigenvalues --    2.72246   2.72870   2.74703   2.75598   2.75674
 Alpha virt. eigenvalues --    2.76256   2.76691   2.77131   2.78755   2.79375
 Alpha virt. eigenvalues --    2.80285   2.81723   2.82152   2.82753   2.83157
 Alpha virt. eigenvalues --    2.83488   2.83951   2.84713   2.85028   2.85078
 Alpha virt. eigenvalues --    2.85407   2.86263   2.86572   2.87774   2.88318
 Alpha virt. eigenvalues --    2.88508   2.88839   2.89364   2.89617   2.90282
 Alpha virt. eigenvalues --    2.90838   2.91919   2.92498   2.92611   2.92946
 Alpha virt. eigenvalues --    2.93425   2.93752   2.93806   2.94769   2.95367
 Alpha virt. eigenvalues --    2.95924   2.96711   2.96973   2.98049   2.98701
 Alpha virt. eigenvalues --    2.99004   2.99755   3.00002   3.00724   3.01511
 Alpha virt. eigenvalues --    3.02073   3.02231   3.03159   3.03207   3.04943
 Alpha virt. eigenvalues --    3.05518   3.05696   3.06422   3.07232   3.08089
 Alpha virt. eigenvalues --    3.09130   3.10406   3.10928   3.11727   3.12483
 Alpha virt. eigenvalues --    3.13418   3.13889   3.13973   3.15166   3.15588
 Alpha virt. eigenvalues --    3.16387   3.16783   3.17607   3.18223   3.18623
 Alpha virt. eigenvalues --    3.19068   3.19229   3.20249   3.20794   3.24340
 Alpha virt. eigenvalues --    3.24602   3.25164   3.25708   3.26606   3.28356
 Alpha virt. eigenvalues --    3.29566   3.30448   3.30471   3.30889   3.31310
 Alpha virt. eigenvalues --    3.32024   3.33119   3.33381   3.34718   3.35038
 Alpha virt. eigenvalues --    3.37721   3.38029   3.39979   3.40774   3.42215
 Alpha virt. eigenvalues --    3.42558   3.43554   3.45989   3.46837   3.47570
 Alpha virt. eigenvalues --    3.51828   3.52517   3.52659   3.54916   3.54939
 Alpha virt. eigenvalues --    3.56519   3.57981   3.60000   3.63493   3.66806
 Alpha virt. eigenvalues --    3.67713   3.68005   3.68827   3.70742   3.71816
 Alpha virt. eigenvalues --    3.72595   3.75769   3.77263   3.78087   3.79752
 Alpha virt. eigenvalues --    3.81904   3.83978   3.86100   3.87489   3.87959
 Alpha virt. eigenvalues --    3.88836   3.89258   3.89518   3.89620   3.89817
 Alpha virt. eigenvalues --    3.91282   3.94936   3.99242   4.07058   4.10520
 Alpha virt. eigenvalues --    4.13042   4.14994   4.15166   4.16593   4.16672
 Alpha virt. eigenvalues --    4.17909   4.18131   4.18963   4.19804   4.19890
 Alpha virt. eigenvalues --    4.22330   4.24783   4.27731   4.29921   4.30645
 Alpha virt. eigenvalues --    4.30844   4.33331   4.34522   4.34789   4.35554
 Alpha virt. eigenvalues --    4.39110   4.39981   4.45452   4.56512   4.57518
 Alpha virt. eigenvalues --    4.71890   4.94211   4.95164   4.96475   4.98116
 Alpha virt. eigenvalues --    5.12021   5.15503   5.16714   5.17128   5.18479
 Alpha virt. eigenvalues --    5.20604   5.31397   5.43153   5.44867   5.49881
 Alpha virt. eigenvalues --    5.51003   5.54142   5.69365   5.73835   5.89119
 Alpha virt. eigenvalues --    5.91171   5.95244   5.98764  23.73291  23.76280
 Alpha virt. eigenvalues --   23.77690  23.85235  23.92232  23.97957  23.98427
 Alpha virt. eigenvalues --   24.01690  24.01761  24.02412  24.05166  24.06826
 Alpha virt. eigenvalues --   24.07662  24.08542  24.09008  24.09720  24.11032
 Alpha virt. eigenvalues --   24.11308  24.13454  24.13805  24.18681  24.19201
 Alpha virt. eigenvalues --   24.20666  24.22499  24.22727  24.23982  24.25207
 Alpha virt. eigenvalues --   24.26292  24.30752  24.31561  24.31698  24.33246
 Alpha virt. eigenvalues --   50.03201  50.05709  50.10247  50.10879  50.11637
 Alpha virt. eigenvalues --   50.15240
          Condensed to atoms (all electrons):
 Mulliken charges:
               1
     1  C   -0.240088
     2  C   -0.335652
     3  C    0.075224
     4  C    0.626477
     5  C   -0.936826
     6  C   -0.128461
     7  H    0.196389
     8  H    0.197137
     9  H    0.261168
    10  C   -0.137681
    11  C    0.823300
    12  C   -0.242449
    13  C   -0.631959
    14  C   -0.169999
    15  H    0.215175
    16  C   -0.351574
    17  H    0.257104
    18  H    0.206015
    19  C    1.296854
    20  C    0.454625
    21  C    0.102982
    22  C   -0.649514
    23  C   -0.336405
    24  C   -0.544046
    25  H    0.213983
    26  C   -0.395312
    27  H    0.239875
    28  H    0.219820
    29  H    0.210585
    30  C    0.454566
    31  C   -0.649511
    32  C    0.102983
    33  C   -0.544024
    34  H    0.213981
    35  C   -0.336420
    36  C   -0.395310
    37  H    0.219821
    38  H    0.239875
    39  H    0.210585
    40  O   -0.117237
    41  O   -0.098691
    42  O   -0.115296
    43  C   -0.514821
    44  H    0.202238
    45  H    0.202225
    46  C   -0.149304
    47  H    0.240322
    48  H    0.240332
    49  C   -0.410295
    50  H    0.196240
    51  H    0.196253
    52  C   -0.150764
    53  H    0.185961
    54  H    0.185956
    55  O   -0.042571
    56  O   -0.171600
    57  C    0.288593
    58  C   -0.286755
    59  H    0.143072
    60  H    0.171278
    61  H    0.143074
    62  C   -0.669448
    63  H    0.199124
    64  H    0.194450
    65  H    0.194445
    66  O   -0.270075
 Sum of Mulliken charges =  -0.00000
 Mulliken charges with hydrogens summed into heavy atoms:
               1
     1  C   -0.043699
     2  C   -0.138515
     3  C    0.075224
     4  C    0.626477
     5  C   -0.675657
     6  C   -0.128461
    10  C   -0.137681
    11  C    0.823300
    12  C   -0.027274
    13  C   -0.374854
    14  C    0.036016
    16  C   -0.351574
    19  C    1.296854
    20  C    0.454625
    21  C    0.102982
    22  C   -0.435531
    23  C   -0.096530
    24  C   -0.324226
    26  C   -0.184726
    30  C    0.454566
    31  C   -0.435530
    32  C    0.102983
    33  C   -0.324203
    35  C   -0.096546
    36  C   -0.184726
    40  O   -0.117237
    41  O   -0.098691
    42  O   -0.115296
    43  C   -0.110358
    46  C    0.331350
    49  C   -0.017802
    52  C    0.221152
    55  O   -0.042571
    56  O   -0.171600
    57  C    0.288593
    58  C    0.170670
    62  C   -0.081429
    66  O   -0.270075
 Electronic spatial extent (au):  <R**2>=          29287.0374
 Charge=             -0.0000 electrons
 Dipole moment (field-independent basis, Debye):
    X=             -2.0190    Y=             -3.5383    Z=              0.0006  Tot=              4.0738
 Quadrupole moment (field-independent basis, Debye-Ang):
   XX=           -197.9843   YY=           -207.5753   ZZ=           -210.9526
   XY=            -25.7335   XZ=              0.0004   YZ=              0.0007
 Traceless Quadrupole moment (field-independent basis, Debye-Ang):
   XX=              7.5198   YY=             -2.0713   ZZ=             -5.4485
   XY=            -25.7335   XZ=              0.0004   YZ=              0.0007
 Octapole moment (field-independent basis, Debye-Ang**2):
  XXX=           -281.8016  YYY=            -17.8932  ZZZ=              0.0018  XYY=             71.4811
  XXY=           -245.9526  XXZ=              0.0676  XZZ=              8.5121  YZZ=             32.6130
  YYZ=             -0.0033  XYZ=              0.0059
 Hexadecapole moment (field-independent basis, Debye-Ang**3):
 XXXX=         -25480.0169 YYYY=          -5390.1815 ZZZZ=          -2969.4530 XXXY=          -2313.8959
 XXXZ=              0.1955 YYYX=            -66.6089 YYYZ=              0.0071 ZZZX=             -0.0192
 ZZZY=             -0.0020 XXYY=          -5745.5722 XXZZ=          -5427.0138 YYZZ=          -1368.9511
 XXYZ=              0.0168 YYXZ=             -0.0163 ZZXY=            -21.9909
 N-N= 3.879668099169D+03 E-N=-1.169312388725D+04  KE= 1.679570297521D+03
 Calling FoFJK, ICntrl=      2127 FMM=T ISym2X=0 I1Cent= 0 IOpClX= 0 NMat=1 NMatS=1 NMatT=0.
 ***** Axes restored to original set *****
 -------------------------------------------------------------------
 Center     Atomic                   Forces (Hartrees/Bohr)
 Number     Number              X              Y              Z
 -------------------------------------------------------------------
      1        6           0.004763756    0.006971835    0.000000113
      2        6          -0.000634393    0.008879109   -0.000000106
      3        6          -0.006702993    0.004325855   -0.000000558
      4        6           0.002715362   -0.004856227    0.000000308
      5        6           0.001250434   -0.006916615    0.000000006
      6        6          -0.018645149    0.002415388   -0.000000942
      7        1          -0.001590378   -0.001285327    0.000000005
      8        1           0.000611477   -0.001360725    0.000000037
      9        1           0.000143181    0.002622874   -0.000000042
     10        6           0.007105817    0.004008227    0.000000718
     11        6          -0.002451004   -0.005263494   -0.000000455
     12        6           0.001282267    0.008823914   -0.000000479
     13        6          -0.001509317   -0.006944265    0.000000019
     14        6          -0.004364215    0.007240670   -0.000000380
     15        1          -0.000710379   -0.001324494    0.000000055
     16        6           0.019030357    0.001376681    0.000001949
     17        1           0.000016145    0.002515146    0.000000024
     18        1           0.001445174   -0.001425278   -0.000000047
     19        6          -0.001079018   -0.001793898    0.000000199
     20        6          -0.000500704    0.001860363    0.000741253
     21        6          -0.001947517    0.003535098   -0.019256151
     22        6          -0.002463198    0.008733840   -0.001004821
     23        6           0.001862077   -0.007694264    0.000521343
     24        6          -0.001626704    0.003131592   -0.007909237
     25        1           0.000559178   -0.002499752   -0.000129796
     26        6           0.000409468   -0.005412292   -0.007820285
     27        1          -0.000412130    0.001971303    0.000185625
     28        1           0.000312934   -0.000675441    0.001245788
     29        1          -0.000065961    0.000929005    0.001195703
     30        6          -0.000500715    0.001861917   -0.000741162
     31        6          -0.002463557    0.008733443    0.001004180
     32        6          -0.001949143    0.003534341    0.019255103
     33        6          -0.001627389    0.003132561    0.007908479
     34        1           0.000559350   -0.002499956    0.000130003
     35        6           0.001861833   -0.007693374   -0.000520415
     36        6           0.000408686   -0.005412601    0.007820557
     37        1           0.000312968   -0.000675549   -0.001245547
     38        1          -0.000411916    0.001970708   -0.000185845
     39        1          -0.000065818    0.000928986   -0.001195834
     40        8           0.007534617   -0.017998187    0.000001260
     41        8           0.006551377   -0.018544541    0.000002532
     42        8          -0.008419371   -0.017662129   -0.000004934
     43        6           0.017077142    0.014734382   -0.000001443
     44        1           0.000909940   -0.000392381   -0.001692281
     45        1           0.000908341   -0.000392363    0.001692949
     46        6          -0.016670433   -0.013876758   -0.000000452
     47        1          -0.000707252    0.000385033    0.001773501
     48        1          -0.000709661    0.000385552   -0.001773243
     49        6          -0.015552204    0.015521648    0.000002690
     50        1          -0.001042137   -0.000396144   -0.001641743
     51        1          -0.001042710   -0.000396784    0.001641669
     52        6           0.016043203   -0.016894753   -0.000001091
     53        1           0.000910595    0.000193072    0.001284407
     54        1           0.000909942    0.000192643   -0.001284432
     55        8          -0.010351519    0.019015175    0.000005990
     56        8           0.004886492    0.022070562   -0.000002803
     57        6           0.019922628    0.039818569    0.000005302
     58        6          -0.024426631   -0.004431947    0.000003809
     59        1          -0.000912160    0.000342534    0.001073701
     60        1           0.000690136   -0.001835785    0.000000048
     61        1          -0.000912286    0.000342367   -0.001073476
     62        6           0.000503441    0.000283058    0.000000190
     63        1          -0.001207912    0.001195741    0.000000616
     64        1           0.000992776    0.000091960   -0.001075600
     65        1           0.000993036    0.000092200    0.001074416
     66        8           0.010191745   -0.047612029   -0.000010951
 -------------------------------------------------------------------
 Cartesian Forces:  Max     0.047612029 RMS     0.007761929

 GradGradGradGradGradGradGradGradGradGradGradGradGradGradGradGradGradGrad
 Berny optimization.
 FormGI is forming the generalized inverse of G from B-inverse, IUseBI=4.
 Internal  Forces:  Max     0.048691656 RMS     0.005765403
 Search for a local minimum.
 Step number   1 out of a maximum of  376
 All quantities printed in internal units (Hartrees-Bohrs-Radians)
 Mixed Optimization -- RFO/linear search
 Second derivative matrix not updated -- first step.
 ITU=  0
     Eigenvalues ---    0.00559   0.00561   0.00572   0.00638   0.00722
     Eigenvalues ---    0.00788   0.00954   0.00990   0.01040   0.01045
     Eigenvalues ---    0.01051   0.01200   0.01225   0.01387   0.01416
     Eigenvalues ---    0.01623   0.01680   0.01703   0.01720   0.01756
     Eigenvalues ---    0.01865   0.01896   0.01919   0.02014   0.02016
     Eigenvalues ---    0.02028   0.02052   0.02074   0.02078   0.02079
     Eigenvalues ---    0.02082   0.02096   0.02098   0.02113   0.02114
     Eigenvalues ---    0.02123   0.02126   0.02126   0.02126   0.02147
     Eigenvalues ---    0.02147   0.02154   0.02159   0.02160   0.02160
     Eigenvalues ---    0.02177   0.02177   0.02191   0.02198   0.04960
     Eigenvalues ---    0.05599   0.05618   0.05621   0.05699   0.05762
     Eigenvalues ---    0.05958   0.05994   0.06008   0.06499   0.07431
     Eigenvalues ---    0.07462   0.09938   0.10477   0.10720   0.10733
     Eigenvalues ---    0.10766   0.10789   0.10823   0.12249   0.13338
     Eigenvalues ---    0.13351   0.13404   0.13428   0.16000   0.16000
     Eigenvalues ---    0.16000   0.16000   0.16000   0.16000   0.16000
     Eigenvalues ---    0.16000   0.16000   0.16000   0.16000   0.16000
     Eigenvalues ---    0.16000   0.16000   0.16000   0.16000   0.16000
     Eigenvalues ---    0.16000   0.16000   0.16000   0.20889   0.21935
     Eigenvalues ---    0.21959   0.21963   0.21983   0.22000   0.22000
     Eigenvalues ---    0.22449   0.22475   0.22601   0.22617   0.23532
     Eigenvalues ---    0.23545   0.24415   0.24427   0.24612   0.24689
     Eigenvalues ---    0.24718   0.24836   0.25000   0.25000   0.25000
     Eigenvalues ---    0.25000   0.25000   0.25000   0.25000   0.25000
     Eigenvalues ---    0.25000   0.27256   0.28000   0.28386   0.28621
     Eigenvalues ---    0.30807   0.30887   0.32551   0.34226   0.34226
     Eigenvalues ---    0.34254   0.34254   0.34474   0.34556   0.34556
     Eigenvalues ---    0.34594   0.34594   0.34773   0.34773   0.35062
     Eigenvalues ---    0.35063   0.35270   0.35338   0.35348   0.35706
     Eigenvalues ---    0.35712   0.35814   0.35814   0.35839   0.35839
     Eigenvalues ---    0.35860   0.35860   0.35916   0.35936   0.35973
     Eigenvalues ---    0.35974   0.36044   0.36054   0.37503   0.37628
     Eigenvalues ---    0.37844   0.38344   0.38386   0.38928   0.40387
     Eigenvalues ---    0.41512   0.41826   0.41867   0.41969   0.42010
     Eigenvalues ---    0.43256   0.44006   0.44080   0.44277   0.45316
[...]
 Alpha virt. eigenvalues --    0.27640   0.27740   0.27883   0.28003   0.28430
 Alpha virt. eigenvalues --    0.28570   0.28624   0.28822   0.29036   0.29273
 Alpha virt. eigenvalues --    0.29688   0.29939   0.30061   0.30342   0.30358
 Alpha virt. eigenvalues --    0.30851   0.31174   0.31177   0.31368   0.31511
 Alpha virt. eigenvalues --    0.31554   0.31985   0.32004   0.32356   0.32611
 Alpha virt. eigenvalues --    0.32692   0.33007   0.33017   0.33161   0.33332
 Alpha virt. eigenvalues --    0.33678   0.33833   0.34005   0.34198   0.34212
 Alpha virt. eigenvalues --    0.34548   0.34714   0.34847   0.34957   0.35397
 Alpha virt. eigenvalues --    0.35555   0.35619   0.35773   0.35968   0.36305
 Alpha virt. eigenvalues --    0.36320   0.36544   0.36548   0.36605   0.37107
 Alpha virt. eigenvalues --    0.37242   0.37403   0.37614   0.37931   0.37967
 Alpha virt. eigenvalues --    0.38179   0.38441   0.38475   0.38642   0.38906
 Alpha virt. eigenvalues --    0.39084   0.39397   0.39592   0.39939   0.40120
 Alpha virt. eigenvalues --    0.40296   0.40456   0.40507   0.40579   0.41292
 Alpha virt. eigenvalues --    0.41384   0.41421   0.41942   0.42052   0.42454
 Alpha virt. eigenvalues --    0.42817   0.42979   0.43268   0.43574   0.43587
 Alpha virt. eigenvalues --    0.44030   0.44161   0.44171   0.44613   0.44811
 Alpha virt. eigenvalues --    0.45030   0.45570   0.46035   0.46094   0.46393
 Alpha virt. eigenvalues --    0.46469   0.46963   0.46965   0.47254   0.47376
 Alpha virt. eigenvalues --    0.48067   0.48205   0.48782   0.49301   0.49411
 Alpha virt. eigenvalues --    0.49768   0.50070   0.50305   0.51003   0.51170
 Alpha virt. eigenvalues --    0.51251   0.51681   0.51792   0.52199   0.52325
 Alpha virt. eigenvalues --    0.53202   0.53983   0.54205   0.55169   0.55276
 Alpha virt. eigenvalues --    0.55741   0.56402   0.56860   0.56916   0.57540
 Alpha virt. eigenvalues --    0.57977   0.58611   0.58904   0.59344   0.59662
 Alpha virt. eigenvalues --    0.60601   0.60634   0.61816   0.62162   0.62644
 Alpha virt. eigenvalues --    0.62882   0.63203   0.63275   0.64001   0.64223
 Alpha virt. eigenvalues --    0.65030   0.65249   0.66115   0.66304   0.66415
 Alpha virt. eigenvalues --    0.66854   0.67383   0.67541   0.67766   0.68040
 Alpha virt. eigenvalues --    0.68195   0.68491   0.69265   0.69274   0.69680
 Alpha virt. eigenvalues --    0.69801   0.70086   0.70410   0.71250   0.71351
 Alpha virt. eigenvalues --    0.71547   0.71588   0.71962   0.72602   0.72854
 Alpha virt. eigenvalues --    0.73036   0.73323   0.73348   0.73680   0.74175
 Alpha virt. eigenvalues --    0.74588   0.74805   0.75371   0.75497   0.75626
 Alpha virt. eigenvalues --    0.75893   0.75900   0.76099   0.76935   0.76944
 Alpha virt. eigenvalues --    0.77366   0.77407   0.77686   0.78087   0.78392
 Alpha virt. eigenvalues --    0.78394   0.78850   0.79497   0.80319   0.80497
 Alpha virt. eigenvalues --    0.80905   0.81241   0.81420   0.81546   0.82010
 Alpha virt. eigenvalues --    0.82287   0.82607   0.82686   0.83128   0.83442
 Alpha virt. eigenvalues --    0.83531   0.83566   0.83709   0.85231   0.85848
 Alpha virt. eigenvalues --    0.86047   0.86476   0.86749   0.87261   0.87399
 Alpha virt. eigenvalues --    0.87464   0.87507   0.88004   0.88474   0.88812
 Alpha virt. eigenvalues --    0.88937   0.89517   0.90218   0.90686   0.91299
 Alpha virt. eigenvalues --    0.91455   0.91981   0.92454   0.92639   0.93396
 Alpha virt. eigenvalues --    0.93973   0.94009   0.94648   0.94679   0.95112
 Alpha virt. eigenvalues --    0.95479   0.95575   0.96310   0.96387   0.97307
 Alpha virt. eigenvalues --    0.97537   0.97987   0.98254   0.99303   0.99763
 Alpha virt. eigenvalues --    1.00141   1.01394   1.01532   1.01703   1.02272
 Alpha virt. eigenvalues --    1.02658   1.03882   1.04660   1.04847   1.05033
 Alpha virt. eigenvalues --    1.05568   1.06000   1.06262   1.06812   1.07159
 Alpha virt. eigenvalues --    1.07882   1.08162   1.08800   1.09327   1.09682
 Alpha virt. eigenvalues --    1.09743   1.10282   1.10744   1.10798   1.11378
 Alpha virt. eigenvalues --    1.11433   1.11825   1.11933   1.12258   1.12793
 Alpha virt. eigenvalues --    1.13647   1.13937   1.14164   1.14257   1.14973
 Alpha virt. eigenvalues --    1.15232   1.15283   1.15906   1.16467   1.17205
 Alpha virt. eigenvalues --    1.17279   1.17321   1.18058   1.18557   1.18783
 Alpha virt. eigenvalues --    1.19113   1.19382   1.19412   1.20755   1.21075
 Alpha virt. eigenvalues --    1.21468   1.21743   1.21837   1.22835   1.22929
 Alpha virt. eigenvalues --    1.23399   1.23907   1.24988   1.25170   1.26530
 Alpha virt. eigenvalues --    1.27850   1.28147   1.28646   1.29176   1.29601
 Alpha virt. eigenvalues --    1.30220   1.30952   1.31069   1.32369   1.32553
 Alpha virt. eigenvalues --    1.33015   1.33945   1.34110   1.34883   1.35312
 Alpha virt. eigenvalues --    1.36828   1.36992   1.37750   1.37851   1.39348
 Alpha virt. eigenvalues --    1.39352   1.40125   1.40490   1.40797   1.41578
 Alpha virt. eigenvalues --    1.42642   1.42655   1.43755   1.45170   1.45818
 Alpha virt. eigenvalues --    1.46945   1.47197   1.47979   1.48231   1.50152
 Alpha virt. eigenvalues --    1.50548   1.51943   1.52402   1.53400   1.53604
 Alpha virt. eigenvalues --    1.55230   1.55603   1.56373   1.56591   1.57786
 Alpha virt. eigenvalues --    1.57800   1.60896   1.61146   1.61870   1.61901
 Alpha virt. eigenvalues --    1.62124   1.62901   1.62959   1.63544   1.63633
 Alpha virt. eigenvalues --    1.63751   1.64114   1.64350   1.64937   1.65499
 Alpha virt. eigenvalues --    1.65508   1.65824   1.66040   1.66066   1.66178
 Alpha virt. eigenvalues --    1.66511   1.66675   1.67399   1.67554   1.67793
 Alpha virt. eigenvalues --    1.68459   1.68592   1.68815   1.68820   1.69302
 Alpha virt. eigenvalues --    1.69310   1.70078   1.70349   1.71072   1.71967
 Alpha virt. eigenvalues --    1.72469   1.72704   1.73778   1.74133   1.74365
 Alpha virt. eigenvalues --    1.74860   1.75174   1.75193   1.75491   1.75635
 Alpha virt. eigenvalues --    1.76168   1.77617   1.78378   1.78739   1.79377
 Alpha virt. eigenvalues --    1.79940   1.80118   1.80465   1.80478   1.80966
 Alpha virt. eigenvalues --    1.81310   1.82101   1.82980   1.83890   1.84532
 Alpha virt. eigenvalues --    1.85217   1.85444   1.85580   1.85986   1.87288
 Alpha virt. eigenvalues --    1.88211   1.88556   1.88640   1.90019   1.90190
 Alpha virt. eigenvalues --    1.90461   1.90888   1.91188   1.91999   1.92766
 Alpha virt. eigenvalues --    1.93182   1.94229   1.94474   1.94657   1.94892
 Alpha virt. eigenvalues --    1.96473   1.96907   1.97635   1.97940   1.98324
 Alpha virt. eigenvalues --    1.98818   1.99175   2.00235   2.00510   2.00811
 Alpha virt. eigenvalues --    2.01404   2.01603   2.02078   2.02326   2.03657
 Alpha virt. eigenvalues --    2.03871   2.04419   2.05651   2.05761   2.06637
 Alpha virt. eigenvalues --    2.06980   2.07437   2.07730   2.08658   2.08940
 Alpha virt. eigenvalues --    2.09284   2.09841   2.09921   2.10287   2.10354
 Alpha virt. eigenvalues --    2.10925   2.11815   2.13303   2.13767   2.14717
 Alpha virt. eigenvalues --    2.15096   2.15545   2.17026   2.18173   2.18306
 Alpha virt. eigenvalues --    2.19237   2.19363   2.19660   2.20022   2.20837
 Alpha virt. eigenvalues --    2.21771   2.21944   2.22051   2.22237   2.23222
 Alpha virt. eigenvalues --    2.23954   2.24608   2.24793   2.25597   2.26169
 Alpha virt. eigenvalues --    2.26946   2.29971   2.30124   2.30329   2.31750
 Alpha virt. eigenvalues --    2.32639   2.34056   2.34518   2.34874   2.35326
 Alpha virt. eigenvalues --    2.36055   2.36726   2.37350   2.39634   2.40148
 Alpha virt. eigenvalues --    2.40775   2.40875   2.42138   2.43516   2.43820
 Alpha virt. eigenvalues --    2.44372   2.44989   2.45921   2.46786   2.47283
 Alpha virt. eigenvalues --    2.48565   2.50262   2.50803   2.51265   2.52270
 Alpha virt. eigenvalues --    2.52872   2.53776   2.54742   2.55365   2.55826
 Alpha virt. eigenvalues --    2.56469   2.58466   2.58527   2.59155   2.59298
 Alpha virt. eigenvalues --    2.59512   2.59660   2.60864   2.60931   2.61219
 Alpha virt. eigenvalues --    2.61985   2.62474   2.62546   2.62913   2.63547
 Alpha virt. eigenvalues --    2.63918   2.65131   2.65647   2.67080   2.68734
 Alpha virt. eigenvalues --    2.69422   2.70943   2.71123   2.71242   2.72894
 Alpha virt. eigenvalues --    2.73714   2.73819   2.75591   2.75779   2.77010
 Alpha virt. eigenvalues --    2.77796   2.78372   2.78717   2.79278   2.80565
 Alpha virt. eigenvalues --    2.80800   2.82820   2.83188   2.84078   2.84394
 Alpha virt. eigenvalues --    2.85092   2.85423   2.85473   2.86139   2.86872
 Alpha virt. eigenvalues --    2.87413   2.87913   2.88120   2.88589   2.88862
 Alpha virt. eigenvalues --    2.89006   2.90930   2.91020   2.91516   2.91808
 Alpha virt. eigenvalues --    2.91976   2.92798   2.93161   2.93371   2.94174
 Alpha virt. eigenvalues --    2.94656   2.95396   2.95447   2.96066   2.96573
 Alpha virt. eigenvalues --    2.97445   2.97615   2.99159   3.00226   3.00230
 Alpha virt. eigenvalues --    3.01136   3.01287   3.02489   3.02518   3.03400
 Alpha virt. eigenvalues --    3.03667   3.04291   3.05129   3.05252   3.05589
 Alpha virt. eigenvalues --    3.06855   3.07043   3.09612   3.09790   3.11386
 Alpha virt. eigenvalues --    3.11769   3.12151   3.13698   3.14212   3.15326
 Alpha virt. eigenvalues --    3.15452   3.16134   3.16334   3.17719   3.18132
 Alpha virt. eigenvalues --    3.18603   3.19859   3.21111   3.21454   3.21688
 Alpha virt. eigenvalues --    3.21856   3.22807   3.22902   3.24189   3.26379
 Alpha virt. eigenvalues --    3.27443   3.28515   3.29371   3.29653   3.30565
 Alpha virt. eigenvalues --    3.32113   3.33154   3.33497   3.33815   3.35867
 Alpha virt. eigenvalues --    3.36084   3.36236   3.37167   3.37226   3.38207
 Alpha virt. eigenvalues --    3.39005   3.40969   3.43167   3.44489   3.44968
 Alpha virt. eigenvalues --    3.46237   3.47728   3.48238   3.50592   3.51366
 Alpha virt. eigenvalues --    3.54325   3.55141   3.56463   3.56534   3.57228
 Alpha virt. eigenvalues --    3.58240   3.60845   3.62729   3.68657   3.69223
 Alpha virt. eigenvalues --    3.69712   3.70369   3.70877   3.72399   3.75018
 Alpha virt. eigenvalues --    3.75569   3.79076   3.79198   3.79815   3.82214
 Alpha virt. eigenvalues --    3.85773   3.86894   3.87238   3.88233   3.89195
 Alpha virt. eigenvalues --    3.89301   3.89473   3.89720   3.90556   3.92280
 Alpha virt. eigenvalues --    3.93828   3.95728   4.02152   4.09296   4.12551
 Alpha virt. eigenvalues --    4.14290   4.15201   4.15546   4.18471   4.18655
 Alpha virt. eigenvalues --    4.19373   4.19787   4.20626   4.21480   4.21747
 Alpha virt. eigenvalues --    4.24055   4.26569   4.28882   4.30943   4.31807
 Alpha virt. eigenvalues --    4.33145   4.35716   4.36920   4.37834   4.40093
 Alpha virt. eigenvalues --    4.41766   4.42726   4.49295   4.57850   4.62351
 Alpha virt. eigenvalues --    4.73070   4.96071   4.97309   4.98438   4.99965
 Alpha virt. eigenvalues --    5.11975   5.15929   5.16389   5.17096   5.18509
 Alpha virt. eigenvalues --    5.19264   5.32943   5.47518   5.49408   5.53904
 Alpha virt. eigenvalues --    5.55600   5.57377   5.75820   5.81409   5.95220
 Alpha virt. eigenvalues --    5.97695   6.00157   6.06831  23.74177  23.78332
 Alpha virt. eigenvalues --   23.79871  23.85510  23.97853  23.98456  23.99467
 Alpha virt. eigenvalues --   24.02974  24.03235  24.05490  24.05591  24.09009
 Alpha virt. eigenvalues --   24.09506  24.09738  24.10229  24.11949  24.13063
 Alpha virt. eigenvalues --   24.13311  24.14850  24.15966  24.21727  24.21830
 Alpha virt. eigenvalues --   24.24424  24.25247  24.25512  24.26617  24.28312
 Alpha virt. eigenvalues --   24.29875  24.33889  24.34554  24.35277  24.36344
 Alpha virt. eigenvalues --   50.04364  50.06841  50.12385  50.13162  50.13804
 Alpha virt. eigenvalues --   50.17563
          Condensed to atoms (all electrons):
 Mulliken charges:
               1
     1  C   -0.359444
     2  C   -0.355904
     3  C    0.120277
     4  C    0.922934
     5  C   -0.933685
     6  C   -0.172865
     7  H    0.194935
     8  H    0.203032
     9  H    0.262365
    10  C   -0.015163
    11  C    0.925235
    12  C   -0.265053
    13  C   -0.773471
    14  C   -0.283924
    15  H    0.206002
    16  C   -0.303782
    17  H    0.261955
    18  H    0.206744
    19  C    1.143698
    20  C    0.371386
    21  C    0.124210
    22  C   -0.668803
    23  C   -0.300814
    24  C   -0.535100
    25  H    0.207074
    26  C   -0.348893
    27  H    0.237407
    28  H    0.216740
    29  H    0.208874
    30  C    0.371399
    31  C   -0.668805
    32  C    0.124211
    33  C   -0.535106
    34  H    0.207074
    35  C   -0.300814
    36  C   -0.348888
    37  H    0.216740
    38  H    0.237407
    39  H    0.208874
    40  O   -0.113892
    41  O   -0.073891
    42  O   -0.081162
    43  C   -0.621384
    44  H    0.195573
    45  H    0.195575
    46  C   -0.081008
    47  H    0.236990
    48  H    0.236989
    49  C   -0.488683
    50  H    0.190515
    51  H    0.190515
    52  C   -0.097919
    53  H    0.177408
    54  H    0.177410
    55  O   -0.009295
    56  O   -0.136285
    57  C    0.291773
    58  C   -0.280007
    59  H    0.136059
    60  H    0.171646
    61  H    0.136058
    62  C   -0.670011
    63  H    0.196573
    64  H    0.189839
    65  H    0.189829
    66  O   -0.267271
 Sum of Mulliken charges =  -0.00000
 Mulliken charges with hydrogens summed into heavy atoms:
               1
     1  C   -0.164509
     2  C   -0.152872
     3  C    0.120277
     4  C    0.922934
     5  C   -0.671320
     6  C   -0.172865
    10  C   -0.015163
    11  C    0.925235
    12  C   -0.059051
    13  C   -0.511516
    14  C   -0.077180
    16  C   -0.303782
    19  C    1.143698
    20  C    0.371386
    21  C    0.124210
    22  C   -0.461729
    23  C   -0.063406
    24  C   -0.318360
    26  C   -0.140019
    30  C    0.371399
    31  C   -0.461731
    32  C    0.124211
    33  C   -0.318366
    35  C   -0.063407
    36  C   -0.140015
    40  O   -0.113892
    41  O   -0.073891
    42  O   -0.081162
    43  C   -0.230237
    46  C    0.392970
    49  C   -0.107654
    52  C    0.256899
    55  O   -0.009295
    56  O   -0.136285
    57  C    0.291773
    58  C    0.163756
    62  C   -0.093770
    66  O   -0.267271
 Electronic spatial extent (au):  <R**2>=          28594.5650
 Charge=             -0.0000 electrons
 Dipole moment (field-independent basis, Debye):
    X=             -1.6434    Y=             -3.3377    Z=             -0.0003  Tot=              3.7203
 Quadrupole moment (field-independent basis, Debye-Ang):
   XX=           -200.9735   YY=           -208.2016   ZZ=           -211.3753
   XY=            -24.7987   XZ=             -0.0006   YZ=             -0.0007
 Traceless Quadrupole moment (field-independent basis, Debye-Ang):
   XX=              5.8766   YY=             -1.3514   ZZ=             -4.5252
   XY=            -24.7987   XZ=             -0.0006   YZ=             -0.0007
 Octapole moment (field-independent basis, Debye-Ang**2):
  XXX=           -253.5729  YYY=            -10.0977  ZZZ=              0.0018  XYY=             54.4720
  XXY=           -231.1479  XXZ=             -0.0271  XZZ=             13.7531  YZZ=             28.0685
  YYZ=              0.0010  XYZ=             -0.0049
 Hexadecapole moment (field-independent basis, Debye-Ang**3):
 XXXX=         -25432.1801 YYYY=          -5300.2218 ZZZZ=          -2943.0546 XXXY=          -2033.0780
 XXXZ=             -0.2070 YYYX=            -91.7707 YYYZ=             -0.0234 ZZZX=             -0.1103
 ZZZY=             -0.0185 XXYY=          -5660.1878 XXZZ=          -5300.8320 YYZZ=          -1361.2021
 XXYZ=             -0.0579 YYXZ=             -0.0306 ZZXY=            -32.2704
 N-N= 3.920747404731D+03 E-N=-1.177600985127D+04  KE= 1.680913778624D+03
 Unable to Open any file for archive entry.
 1\1\GINC-SKKUPSL\FOpt\RwB97XD\6-311++G(d,p)\C32H28O6\PSL\25-Oct-2025\0
 \\# opt wb97xd/6-311++g(d,p) geom=connectivity\\Title Card Required\\0
 ,1\C,-2.5288763643,-2.2132513901,0.0000698913\C,-1.1755705764,-2.55012
 82292,0.0000484986\C,-0.2208103498,-1.5474702889,0.0000176454\C,-0.626
 3708185,-0.2070629167,0.0000084532\C,-1.9568757868,0.1437830807,0.0000
 284171\C,-2.9162456956,-0.8724334337,0.0000591879\H,-3.2673132737,-3.0
 04141152,0.0000967937\H,-0.8869245977,-3.5957701197,0.000057028\H,-2.2
 789329939,1.179153011,0.0000202827\C,1.246678263,-1.5915279008,-0.0000
 097306\C,1.7321094749,-0.2781959529,-0.0000358361\C,2.1394145107,-2.65
 03290364,-0.0000121731\C,3.0816418524,-0.0088265987,-0.000062311\C,3.5
 101004839,-2.395991803,-0.0000403966\H,1.7880697522,-3.6766266377,0.00
 00062862\C,3.9791248069,-1.0806115754,-0.0000640131\H,3.4644449229,1.0
 054987738,-0.0000806144\H,4.2008287098,-3.2287874764,-0.0000466227\C,0
 .5834916477,0.7287921571,-0.0000270356\C,0.6015046511,1.5932483461,1.2
 502678947\C,0.5135995638,2.97691388,1.1785898512\C,0.6837080617,1.0067
 188299,2.5156980207\C,0.5053896586,3.7625977501,2.3306120347\C,0.67640
 40172,1.7713049624,3.6678405526\H,0.7535194918,-0.0742799054,2.5823117
 979\C,0.5855192164,3.1596854802,3.5714349508\H,0.4362578765,4.83837188
 77,2.2231771365\H,0.7405376267,1.2926153054,4.637702797\H,0.5788930465
 ,3.7709639206,4.4665916586\C,0.6014569357,1.5932151537,-1.2503455344\C
 ,0.6836121082,1.0066518681,-2.5157631207\C,0.5135544103,2.9768825586,-
 1.1787011102\C,0.6762638952,1.7712072443,-3.6679257643\H,0.7534213513,
 -0.0743486067,-2.5823507841\C,0.5053001923,3.7625357125,-2.3307438996\
 C,0.5853824014,3.1595902933,-3.5715537895\H,0.7403608535,1.2924917265,
 -4.6377776578\H,0.4361723371,4.8383127067,-2.2233350729\H,0.5787220134
 ,3.7708448356,-4.4667265591\O,0.4279203628,3.6611296182,-0.0000630406\
 O,-4.2103446113,-0.4536064814,0.0000822905\O,5.2940222874,-0.742417499
 5,-0.0000987177\C,-5.235144881,-1.4215700362,0.0000517076\H,-5.1729937
 795,-2.0583554753,-0.8908355077\H,-5.1730392389,-2.0583671336,0.890933
 9836\C,-6.5399651871,-0.6533839871,0.0000269987\H,-6.622768359,-0.0200
 491273,0.8856138104\H,-6.6227662168,-0.0200902278,-0.8855885295\C,6.26
 0202319,-1.7728968462,0.000009747\H,6.1592265054,-2.4038437503,-0.8909
 330597\H,6.1591155225,-2.4037542662,0.8910029128\C,7.6166105072,-1.098
 3446257,0.0000531507\H,7.7138640104,-0.4589236514,0.8894246462\H,7.713
 9302281,-0.4589513123,-0.8893310539\O,-7.5762338907,-1.6379366256,0.00
 00508302\O,8.5867969973,-2.1135848805,0.0001061496\C,-8.8391280199,-1.
 1723576595,-0.0000404507\C,9.8994613053,-1.6122432388,0.0001694879\H,1
 0.0942252877,-1.0013885238,0.89272141\H,10.5747809328,-2.4677032095,0.
 0002026471\H,10.0943117241,-1.0013897216,-0.892364387\C,-9.8297166391,
 -2.3019709629,-0.0001895319\H,-10.839457058,-1.8977783505,-0.000350864
 1\H,-9.6768731343,-2.9281528078,-0.8814049098\H,-9.6771428012,-2.92814
 00917,0.8810802378\O,-9.1063408497,-0.0012885859,-0.0002511108\\Versio
 n=ES64L-G16RevC.01\State=1-A\HF=-1687.4912412\RMSD=7.706e-09\RMSF=3.56
 7e-06\Dipole=0.6643861,-1.3042005,0.0001194\Quadrupole=3.8656654,-0.50
 13114,-3.364354,18.5035931,-0.0004726,0.0004778\PG=C01 [X(C32H28O6)]\\
 @
 The archive entry for this job was punched.


 Some scientists claim that hydrogen, because it is so
 plentiful, is the basic building block of the universe. 
 I dispute that. I say that stupidity is far more
 abundant than hydrogen, and THAT is the basic building 
 block of the universe.
                   --Frank Zappa
 Job cpu time:       1 days 22 hours 47 minutes 57.5 seconds.
 Elapsed time:       1 days 23 hours 19 minutes  8.6 seconds.
 File lengths (MBytes):  RWF=    628 Int=      0 D2E=      0 Chk=     77 Scr=      1
 Normal termination of Gaussian 16 at Sat Oct 25 10:44:13 2025.
